
                                 *****************
                                 * O   R   C   A *
                                 *****************

           --- An Ab Initio, DFT and Semiempirical electronic structure package ---

                  #######################################################
                  #                        -***-                        #
                  #          Department of theory and spectroscopy      #
                  #               Directorship: Frank Neese             #
                  #        Max Planck Institute fuer Kohlenforschung    #
                  #                Kaiser Wilhelm Platz 1               #
                  #                 D-45470 Muelheim/Ruhr               #
                  #                      Germany                        #
                  #                                                     #
                  #                  All rights reserved                #
                  #                        -***-                        #
                  #######################################################


                         Program Version 4.2.1 -  RELEASE  -


 With contributions from (in alphabetic order):
   Daniel Aravena         : Magnetic Suceptibility
   Michael Atanasov       : Ab Initio Ligand Field Theory (pilot matlab implementation)
   Alexander A. Auer      : GIAO ZORA, VPT2
   Ute Becker             : Parallelization
   Giovanni Bistoni       : ED, misc. LED, open-shell LED, HFLD
   Martin Brehm           : Molecular dynamics
   Dmytro Bykov           : SCF Hessian
   Vijay G. Chilkuri      : MRCI spin determinant printing, contributions to CSF-ICE
   Dipayan Datta          : RHF DLPNO-CCSD density
   Achintya Kumar Dutta   : EOM-CC, STEOM-CC
   Dmitry Ganyushin       : Spin-Orbit,Spin-Spin,Magnetic field MRCI
   Miquel Garcia          : C-PCM Hessian, Gaussian charge scheme
   Yang Guo               : DLPNO-NEVPT2, CIM, IAO-localization
   Andreas Hansen         : Spin unrestricted coupled pair/coupled cluster methods
   Benjamin Helmich-Paris : CASSCF linear response (MC-RPA)
   Lee Huntington         : MR-EOM, pCC
   Robert Izsak           : Overlap fitted RIJCOSX, COSX-SCS-MP3, EOM
   Christian Kollmar      : KDIIS, OOCD, Brueckner-CCSD(T), CCSD density
   Simone Kossmann        : Meta GGA functionals, TD-DFT gradient, OOMP2, MP2 Hessian
   Martin Krupicka        : AUTO-CI
   Lucas Lang             : DCDCAS
   Dagmar Lenk            : GEPOL surface, SMD
   Dimitrios Liakos       : Extrapolation schemes; Compound Job, initial MDCI parallelization
   Dimitrios Manganas     : Further ROCIS development; embedding schemes
   Dimitrios Pantazis     : SARC Basis sets
   Taras Petrenko         : DFT Hessian,TD-DFT gradient, ASA, ECA, R-Raman, ABS, FL, XAS/XES, NRVS
   Peter Pinski           : DLPNO-MP2, DLPNO-MP2 Gradient
   Christoph Reimann      : Effective Core Potentials
   Marius Retegan         : Local ZFS, SOC
   Christoph Riplinger    : Optimizer, TS searches, QM/MM, DLPNO-CCSD(T), (RO)-DLPNO pert. Triples
   Tobias Risthaus        : Range-separated hybrids, TD-DFT gradient, RPA, STAB
   Michael Roemelt        : Original ROCIS implementation
   Masaaki Saitow         : Open-shell DLPNO-CCSD energy and density
   Barbara Sandhoefer     : DKH picture change effects
   Avijit Sen             : IP-ROCIS
   Kantharuban Sivalingam : CASSCF convergence, NEVPT2, FIC-MRCI
   Bernardo de Souza      : ESD, SOC TD-DFT
   Georgi Stoychev        : AutoAux, RI-MP2 NMR
   Willem Van den Heuvel  : Paramagnetic NMR
   Boris Wezisla          : Elementary symmetry handling
   Frank Wennmohs         : Technical directorship


 We gratefully acknowledge several colleagues who have allowed us to
 interface, adapt or use parts of their codes:
   Stefan Grimme, W. Hujo, H. Kruse,             : VdW corrections, initial TS optimization,
                  C. Bannwarth                     DFT functionals, gCP, sTDA/sTD-DF
   Ed Valeev, F. Pavosevic, A. Kumar             : LibInt (2-el integral package), F12 methods
   Garnet Chan, S. Sharma, J. Yang, R. Olivares  : DMRG
   Ulf Ekstrom                                   : XCFun DFT Library
   Mihaly Kallay                                 : mrcc  (arbitrary order and MRCC methods)
   Andreas Klamt, Michael Diedenhofen            : otool_cosmo (COSMO solvation model)
   Jiri Pittner, Ondrej Demel                    : Mk-CCSD
   Frank Weinhold                                : gennbo (NPA and NBO analysis)
   Christopher J. Cramer and Donald G. Truhlar   : smd solvation model
   Lars Goerigk                                  : TD-DFT with DH, B97 family of functionals
   V. Asgeirsson, H. Jonsson                     : NEB implementation
   FAccTs GmbH                                   : IRC, NEB, NEB-TS, Multilevel, MM, QM/MM, CI optimization
   S Lehtola, MJT Oliveira, MAL Marques          : LibXC Library


 Your calculation uses the libint2 library for the computation of 2-el integrals
 For citations please refer to: http://libint.valeyev.net

 Your ORCA version has been built with support for libXC version: 4.2.3
 For citations please refer to: https://tddft.org/programs/libxc/

 This ORCA versions uses:
   CBLAS   interface :  Fast vector & matrix operations
   LAPACKE interface :  Fast linear algebra routines
   SCALAPACK package :  Parallel linear algebra routines




***************************************
The coordinates will be read from file: mta.xyz
***************************************



Information: The global flag for chemical shieldings has been found
             ==>> will calculate the chemical shieldings for all atoms in the system

----- Orbital basis set information -----
Your calculation utilizes the basis: def2-TZVP
   F. Weigend and R. Ahlrichs, Phys. Chem. Chem. Phys. 7, 3297 (2005).

----- AuxJK basis set information -----
Your calculation utilizes the auxiliary basis: def2/JK
   H-Ba, Hf-Rn: F. Weigend, J. Comput. Chem. 29, 167 (2008).

================================================================================
                                        WARNINGS
                       Please study these warnings very carefully!
================================================================================


WARNING: Analytical and numerical frequencies both set to true
  ===> : Disabling Anfreq

WARNING: The environment variable RSH_COMMAND is not set!
  ===> : All Displacements for the Numerical Hessian calculation
         will be started on localhost

WARNING: Geometry Optimization
  ===> : Switching off AutoStart
         For restart on a previous wavefunction, please use MOREAD

INFO   : the flag for use of LIBINT has been found!

================================================================================
                                       INPUT FILE
================================================================================
NAME = geo_opt.inp
|  1> ! RHF b3lyp def2-TZVP LARGEPRINT PRINTBASIS PRINTGAP TightSCF ALLPOP Opt AnFreq NumFreq bohrs def2/JK NMR
|  2> 
|  3> %pal nprocs 16
|  4> end
|  5> 
|  6> %elprop Dipole true
|  7>         Quadrupole true
|  8>         Polar 1
|  9> end
| 10> 
| 11> %geom
| 12>   MaxIter 100
| 13> end
| 14> 
| 15> * xyzfile 0 1 mta.xyz
| 16> 
| 17>                          ****END OF INPUT****
================================================================================

                       *****************************
                       * Geometry Optimization Run *
                       *****************************

Geometry optimization settings:
Update method            Update   .... BFGS
Choice of coordinates    CoordSys .... Z-matrix Internals
Initial Hessian          InHess   .... Almoef's Model

Convergence Tolerances:
Energy Change            TolE     ....  5.0000e-06 Eh
Max. Gradient            TolMAXG  ....  3.0000e-04 Eh/bohr
RMS Gradient             TolRMSG  ....  1.0000e-04 Eh/bohr
Max. Displacement        TolMAXD  ....  4.0000e-03 bohr
RMS Displacement         TolRMSD  ....  2.0000e-03 bohr
Strict Convergence                ....  False
------------------------------------------------------------------------------
                        ORCA OPTIMIZATION COORDINATE SETUP
------------------------------------------------------------------------------

The optimization will be done in new redundant internal coordinates
Making redundant internal coordinates   ...  (new redundants) done
Evaluating the initial hessian          ...  (Almloef) done
Evaluating the coordinates              ...  done
Calculating the B-matrix                .... done
Calculating the G-matrix                .... done
Diagonalizing the G-matrix              .... done
The first mode is                       ....   91
The number of degrees of freedom        ....   15

    -----------------------------------------------------------------
                    Redundant Internal Coordinates


    -----------------------------------------------------------------
         Definition                    Initial Value    Approx d2E/dq
    -----------------------------------------------------------------
      1. B(C   1,N   0)                  0.7751         5.356791   
      2. B(H   2,C   1)                  0.5769         2.371178   
      3. B(H   2,N   0)                  1.1090         0.300804   
      4. B(H   3,C   1)                  0.5769         2.371421   
      5. B(H   3,N   0)                  1.1089         0.300840   
      6. B(H   4,C   1)                  0.5769         2.371898   
      7. B(H   4,N   0)                  1.1165         0.292617   
      8. B(H   5,C   1)                  1.0714         0.385583   
      9. B(H   5,N   0)                  0.5410         2.423248   
     10. B(H   6,C   1)                  1.0714         0.385571   
     11. B(H   6,N   0)                  0.5411         2.422776   
     12. A(H   3,N   0,H   4)           50.0199         0.269614   
     13. A(H   5,N   0,H   6)          107.1230         0.556314   
     14. A(H   3,N   0,H   6)          137.0230         0.380429   
     15. A(C   1,N   0,H   6)          107.6502         0.737822   
     16. A(H   2,N   0,H   4)           50.0209         0.269609   
     17. A(H   3,N   0,H   5)           92.8497         0.380442   
     18. A(H   4,N   0,H   6)           91.0397         0.378607   
     19. A(C   1,N   0,H   4)           28.9469         0.491110   
     20. A(H   2,N   0,H   6)           92.8456         0.380421   
     21. A(C   1,N   0,H   3)           29.3994         0.493640   
     22. A(C   1,N   0,H   5)          107.6548         0.737851   
     23. A(H   2,N   0,H   3)           50.1562         0.270746   
     24. A(H   2,N   0,H   5)          137.0278         0.380434   
     25. A(H   4,N   0,H   5)           91.0428         0.378620   
     26. A(C   1,N   0,H   2)           29.3997         0.493629   
     27. A(H   2,C   1,H   3)          109.1181         0.562750   
     28. A(H   3,C   1,H   4)          109.2688         0.562782   
     29. A(H   2,C   1,H   4)          109.2703         0.562771   
     30. A(N   0,C   1,H   4)          110.4871         0.742326   
     31. A(N   0,C   1,H   3)          109.3368         0.742296   
     32. A(H   4,C   1,H   5)           93.7390         0.403068   
     33. A(H   3,C   1,H   5)           94.7062         0.403054   
     34. A(H   2,C   1,H   5)          138.0760         0.403046   
     35. A(N   0,C   1,H   5)           28.7639         0.522067   
     36. A(H   5,C   1,H   6)           47.9423         0.297183   
     37. A(H   4,C   1,H   6)           93.7379         0.403066   
     38. A(H   3,C   1,H   6)          138.0779         0.403051   
     39. A(N   0,C   1,H   2)          109.3386         0.742281   
     40. A(N   0,C   1,H   6)           28.7675         0.522064   
     41. A(H   2,C   1,H   6)           94.7059         0.403044   
     42. A(N   0,H   2,C   1)           41.2617         0.382424   
     43. A(N   0,H   3,C   1)           41.2638         0.382439   
     44. A(N   0,H   4,C   1)           40.5660         0.380617   
     45. A(N   0,H   5,C   1)           43.5813         0.400916   
     46. A(N   0,H   6,C   1)           43.5822         0.400900   
     47. D(H   5,C   1,N   0,H   4)     57.5901         9.901637   
     48. D(H   6,C   1,N   0,H   5)   -115.1829         9.901637   
     49. D(H   6,C   1,N   0,H   2)     62.7053         9.901637   
     50. D(H   3,C   1,N   0,H   4)    120.2951         9.901637   
     51. D(H   4,C   1,N   0,H   6)     57.5929         9.901637   
     52. D(H   3,C   1,N   0,H   6)    177.8880         9.901637   
     53. D(H   4,C   1,N   0,H   2)    120.2981         9.901637   
     54. D(H   6,C   1,N   0,H   4)    -57.5929         9.901637   
     55. D(H   2,C   1,N   0,H   6)    -62.7053         9.901637   
     56. D(H   5,C   1,N   0,H   3)    -62.7051         9.901637   
     57. D(H   3,C   1,N   0,H   5)     62.7051         9.901637   
     58. D(H   3,C   1,N   0,H   2)   -119.4067         9.901637   
     59. D(H   2,C   1,N   0,H   4)   -120.2981         9.901637   
     60. D(H   5,C   1,N   0,H   6)    115.1829         9.901637   
     61. D(H   4,C   1,N   0,H   5)    -57.5901         9.901637   
     62. D(H   6,C   1,N   0,H   3)   -177.8880         9.901637   
     63. D(H   2,C   1,N   0,H   3)    119.4067         9.901637   
     64. D(H   2,C   1,N   0,H   5)   -177.8882         9.901637   
     65. D(H   5,C   1,N   0,H   2)    177.8882         9.901637   
     66. D(H   4,C   1,N   0,H   3)   -120.2951         9.901637   
     67. D(N   0,H   2,C   1,H   6)    -25.4117        28.542304   
     68. D(N   0,H   2,C   1,H   4)   -121.0400        28.542304   
     69. D(N   0,H   2,C   1,H   3)    119.5417        28.542304   
     70. D(C   1,H   2,N   0,H   6)    122.0191         0.114799   
     71. D(C   1,H   2,N   0,H   5)      2.9528         0.114799   
     72. D(N   0,H   2,C   1,H   5)     -1.5208        28.542304   
     73. D(C   1,H   2,N   0,H   4)     33.0486         0.114799   
     74. D(C   1,H   2,N   0,H   3)    -33.8473         0.114799   
     75. D(C   1,H   3,N   0,H   5)   -122.0213         0.114833   
     76. D(C   1,H   3,N   0,H   4)    -33.0503         0.114833   
     77. D(C   1,H   3,N   0,H   2)     33.8476         0.114833   
     78. D(N   0,H   3,C   1,H   6)      1.5211        28.552112   
     79. D(N   0,H   3,C   1,H   5)     25.4086        28.552112   
     80. D(N   0,H   3,C   1,H   4)    121.0380        28.552112   
     81. D(N   0,H   3,C   1,H   2)   -119.5428        28.552112   
     82. D(C   1,H   3,N   0,H   6)     -2.9529         0.114833   
     83. D(N   0,H   4,C   1,H   6)     24.0274        28.571355   
     84. D(N   0,H   4,C   1,H   3)   -120.3359        28.571355   
     85. D(N   0,H   4,C   1,H   2)    120.3390        28.571355   
     86. D(C   1,H   4,N   0,H   6)   -126.4235         0.107409   
     87. D(C   1,H   4,N   0,H   5)    126.4278         0.107409   
     88. D(N   0,H   4,C   1,H   5)    -24.0236        28.571355   
     89. D(C   1,H   4,N   0,H   3)     33.5831         0.107409   
     90. D(C   1,H   4,N   0,H   2)    -33.5817         0.107409   
     91. D(N   0,H   5,C   1,H   6)     35.9144         0.168894   
     92. D(N   0,H   5,C   1,H   4)    127.5779         0.168894   
     93. D(N   0,H   5,C   1,H   3)   -122.7156         0.168894   
     94. D(N   0,H   5,C   1,H   2)      2.9831         0.168894   
     95. D(C   1,H   5,N   0,H   6)   -115.5313        42.602879   
     96. D(C   1,H   5,N   0,H   4)    -24.1217        42.602879   
     97. D(C   1,H   5,N   0,H   3)     25.8985        42.602879   
     98. D(C   1,H   5,N   0,H   2)     -1.5207        42.602879   
     99. D(N   0,H   6,C   1,H   5)    -35.9096         0.168881   
    100. D(N   0,H   6,C   1,H   3)     -2.9835         0.168881   
    101. D(N   0,H   6,C   1,H   2)    122.7164         0.168881   
    102. D(C   1,H   6,N   0,H   5)    115.5343        42.574019   
    103. D(C   1,H   6,N   0,H   4)     24.1225        42.574019   
    104. D(N   0,H   6,C   1,H   4)   -127.5757         0.168881   
    105. D(C   1,H   6,N   0,H   3)      1.5207        42.574019   
    106. D(C   1,H   6,N   0,H   2)    -25.8987        42.574019   
    -----------------------------------------------------------------

Number of atoms                         .... 7
Number of degrees of freedom            .... 106

         *************************************************************
         *                GEOMETRY OPTIMIZATION CYCLE   1            *
         *************************************************************
---------------------------------
CARTESIAN COORDINATES (ANGSTROEM)
---------------------------------
  N      0.478006    0.043075    0.074667
  C     -0.296974    0.036196    0.062707
  H     -0.492876    0.578867    0.062549
  H     -0.492876   -0.235272    0.532564
  H     -0.489224   -0.235748   -0.408313
  H      0.646972   -0.470544    0.055564
  H      0.646972    0.283374   -0.379738

----------------------------
CARTESIAN COORDINATES (A.U.)
----------------------------
  NO LB      ZA    FRAG     MASS         X           Y           Z
   0 N     7.0000    0    14.007    0.903300    0.081400    0.141100
   1 C     6.0000    0    12.011   -0.561200    0.068400    0.118500
   2 H     1.0000    0     1.008   -0.931400    1.093900    0.118200
   3 H     1.0000    0     1.008   -0.931400   -0.444600    1.006400
   4 H     1.0000    0     1.008   -0.924500   -0.445500   -0.771600
   5 H     1.0000    0     1.008    1.222600   -0.889200    0.105000
   6 H     1.0000    0     1.008    1.222600    0.535500   -0.717600

--------------------------------
INTERNAL COORDINATES (ANGSTROEM)
--------------------------------
 N      0   0   0     0.000000000000     0.00000000     0.00000000
 C      1   0   0     0.775102822853     0.00000000     0.00000000
 H      2   1   0     0.576948390624   109.33858666     0.00000000
 H      2   1   3     0.576920498653   109.33678982   240.59325402
 H      2   1   3     0.576865807741   110.48707892   120.29812755
 H      1   2   3     0.541035513633   107.65482123   182.11181144
 H      1   2   3     0.541088544747   107.65023742   297.29473391

---------------------------
INTERNAL COORDINATES (A.U.)
---------------------------
 N      0   0   0     0.000000000000     0.00000000     0.00000000
 C      1   0   0     1.464732060822     0.00000000     0.00000000
 H      2   1   0     1.090274451686   109.33858666     0.00000000
 H      2   1   3     1.090221743500   109.33678982   240.59325402
 H      2   1   3     1.090118392653   110.48707892   120.29812755
 H      1   2   3     1.022408949491   107.65482123   182.11181144
 H      1   2   3     1.022509163773   107.65023742   297.29473391

---------------------
BASIS SET INFORMATION
---------------------
There are 3 groups of distinct atoms

 Group   1 Type N   : 11s6p2d1f contracted to 5s3p2d1f pattern {62111/411/11/1}
 Group   2 Type C   : 11s6p2d1f contracted to 5s3p2d1f pattern {62111/411/11/1}
 Group   3 Type H   : 5s1p contracted to 3s1p pattern {311/1}

Atom   0N    basis set group =>   1
Atom   1C    basis set group =>   2
Atom   2H    basis set group =>   3
Atom   3H    basis set group =>   3
Atom   4H    basis set group =>   3
Atom   5H    basis set group =>   3
Atom   6H    basis set group =>   3

-------------------------
BASIS SET IN INPUT FORMAT
-------------------------

 # Basis set for element : H 
 NewGTO H 
 S 3 
   1      34.0613410000      0.0254393072
   2       5.1235746000      0.1900859489
   3       1.1646626000      0.8524411301
 S 1 
   1       0.3272304100      1.0000000000
 S 1 
   1       0.1030724100      1.0000000000
 P 1 
   1       0.8000000000      1.0000000000
  end;

 # Basis set for element : C 
 NewGTO C 
 S 6 
   1   13575.3496820000      0.0006064549
   2    2035.2333680000      0.0046979088
   3     463.2256235900      0.0243324776
   4     131.2001959800      0.0973999683
   5      42.8530158910      0.3019558425
   6      15.5841857660      0.6623360915
 S 2 
   1       6.2067138508      0.6559530854
   2       2.5764896527      0.3758563329
 S 1 
   1       0.5769633942      1.0000000000
 S 1 
   1       0.2297283136      1.0000000000
 S 1 
   1       0.0951644400      1.0000000000
 P 4 
   1      34.6972322440      0.0113272200
   2       7.9582622826      0.0761696592
   3       2.3780826883      0.3019225220
   4       0.8143320818      0.7278502735
 P 1 
   1       0.2888754725      1.0000000000
 P 1 
   1       0.1005682367      1.0000000000
 D 1 
   1       1.0970000000      1.0000000000
 D 1 
   1       0.3180000000      1.0000000000
 F 1 
   1       0.7610000000      1.0000000000
  end;

 # Basis set for element : N 
 NewGTO N 
 S 6 
   1   19730.8006470000      0.0005862639
   2    2957.8958745000      0.0045428821
   3     673.2213359500      0.0235584136
   4     190.6824949400      0.0947091933
   5      62.2954418980      0.2971978492
   6      22.6541611820      0.6691624689
 S 2 
   1       8.9791477428      0.6459668363
   2       3.6863002370      0.3870057440
 S 1 
   1       0.8466007680      1.0000000000
 S 1 
   1       0.3364713377      1.0000000000
 S 1 
   1       0.1364765367      1.0000000000
 P 4 
   1      49.2003805100      0.0114488252
   2      11.3467905370      0.0784223379
   3       3.4273972411      0.3081809474
   4       1.1785525134      0.7202719637
 P 1 
   1       0.4164220497      1.0000000000
 P 1 
   1       0.1426082601      1.0000000000
 D 1 
   1       1.6540000000      1.0000000000
 D 1 
   1       0.4690000000      1.0000000000
 F 1 
   1       1.0930000000      1.0000000000
  end;

----------------------------------
AUXILIARY/JK BASIS SET INFORMATION
----------------------------------
There are 3 groups of distinct atoms

 Group   1 Type N   : 14s10p6d2f1g contracted to 10s8p4d2f1g pattern {5111111111/31111111/3111/11/1}
 Group   2 Type C   : 14s10p6d2f1g contracted to 10s8p5d1f1g pattern {5111111111/31111111/21111/2/1}
 Group   3 Type H   : 4s2p2d contracted to 2s2p2d pattern {31/11/11}

Atom   0N    basis set group =>   1
Atom   1C    basis set group =>   2
Atom   2H    basis set group =>   3
Atom   3H    basis set group =>   3
Atom   4H    basis set group =>   3
Atom   5H    basis set group =>   3
Atom   6H    basis set group =>   3

--------------------------------------
AUXILIARY/JK BASIS SET IN INPUT FORMAT
--------------------------------------

 # Auxiliary/JK basis set for element : H 
 NewAuxJKGTO H 
 S 3 
   1      22.0683430000      0.0424380615
   2       4.3905712000      0.3158026706
   3       1.0540787000      0.7340270752
 S 1 
   1       0.2717874000      1.0000000000
 P 1 
   1       1.8529979000      1.0000000000
 P 1 
   1       0.3881034000      1.0000000000
 D 1 
   1       2.5579933000      1.0000000000
 D 1 
   1       0.3292649000      1.0000000000
  end;

 # Auxiliary/JK basis set for element : C 
 NewAuxJKGTO C 
 S 5 
   1     384.4438241000      0.1044641099
   2     167.5626631000      0.0684899641
   3      76.6196203000      0.2953336854
   4      36.6795293000      0.3064575423
   5      18.3380917000      0.3443826114
 S 1 
   1       9.5470634000      1.0000000000
 S 1 
   1       5.1584143000      1.0000000000
 S 1 
   1       2.8816701000      1.0000000000
 S 1 
   1       1.6573522000      1.0000000000
 S 1 
   1       0.9768102000      1.0000000000
 S 1 
   1       0.5870200000      1.0000000000
 S 1 
   1       0.3577927000      1.0000000000
 S 1 
   1       0.2199550000      1.0000000000
 S 1 
   1       0.1356077000      1.0000000000
 P 3 
   1      62.0679561000      0.2089307109
   2      20.0127507000      0.4752430848
   3      10.2053594000      0.4199871490
 P 1 
   1       5.6367045000      1.0000000000
 P 1 
   1       2.8744918000      1.0000000000
 P 1 
   1       1.4513791000      1.0000000000
 P 1 
   1       0.7328327000      1.0000000000
 P 1 
   1       0.3700256000      1.0000000000
 P 1 
   1       0.1868360000      1.0000000000
 P 1 
   1       0.0952821000      1.0000000000
 D 2 
   1      11.2820057000      0.2577021103
   2       4.3789486000      0.8056501388
 D 1 
   1       1.7517699000      1.0000000000
 D 1 
   1       0.7164852000      1.0000000000
 D 1 
   1       0.2970402000      1.0000000000
 D 1 
   1       0.1237087000      1.0000000000
 F 2 
   1       1.8786227000      0.4987975889
   2       0.6860358000      0.6251095556
 G 1 
   1       1.1430602000      1.0000000000
  end;

 # Auxiliary/JK basis set for element : N 
 NewAuxJKGTO N 
 S 5 
   1     502.8608492000      0.1002743105
   2     209.9650046000      0.0915939464
   3      92.4340089000      0.3089347807
   4      42.8175835000      0.3272823371
   5      20.8176154000      0.2971727757
 S 1 
   1      10.5912894000      1.0000000000
 S 1 
   1       5.6186543000      1.0000000000
 S 1 
   1       3.0952689000      1.0000000000
 S 1 
   1       1.7624885000      1.0000000000
 S 1 
   1       1.0319737000      1.0000000000
 S 1 
   1       0.6178352000      1.0000000000
 S 1 
   1       0.3759343000      1.0000000000
 S 1 
   1       0.2310083000      1.0000000000
 S 1 
   1       0.1424224000      1.0000000000
 P 3 
   1      44.6074972000      0.3747855226
   2      22.5230671000      0.1409776770
   3      11.3723303000      0.5894306313
 P 1 
   1       5.7421344000      1.0000000000
 P 1 
   1       2.8993384000      1.0000000000
 P 1 
   1       1.4639486000      1.0000000000
 P 1 
   1       0.7391861000      1.0000000000
 P 1 
   1       0.3732351000      1.0000000000
 P 1 
   1       0.1884567000      1.0000000000
 P 1 
   1       0.0951571000      1.0000000000
 D 3 
   1      46.8440406000      0.0342155758
   2      14.8824561000      0.2331316544
   3       5.3437066000      0.8235369075
 D 1 
   1       2.1154199000      1.0000000000
 D 1 
   1       0.8923218000      1.0000000000
 D 1 
   1       0.3848043000      1.0000000000
 F 1 
   1       2.4229788000      1.0000000000
 F 1 
   1       0.8335441000      1.0000000000
 G 1 
   1       1.4586791000      1.0000000000
  end;



           ************************************************************
           *        Program running with 16 parallel MPI-processes    *
           *              working on a common directory               *
           ************************************************************
------------------------------------------------------------------------------
                           ORCA GTO INTEGRAL CALCULATION
------------------------------------------------------------------------------

                         BASIS SET STATISTICS AND STARTUP INFO

 # of primitive gaussian shells          ...   70
 # of primitive gaussian functions       ...  132
 # of contracted shells                  ...   42
 # of contracted basis functions         ...   92
 Highest angular momentum                ...    3
 Maximum contraction depth               ...    6
 Integral package used                   ... LIBINT
 Integral threshhold            Thresh   ...  2.500e-11
 Primitive cut-off              TCut     ...  2.500e-12


------------------------------ INTEGRAL EVALUATION ----------------------------


 * One electron integrals 
 Pre-screening matrix                    ... done
 Shell pair data                         ... done (   0.000 sec)



           ************************************************************
           *        Program running with 16 parallel MPI-processes    *
           *              working on a common directory               *
           ************************************************************
-------------------------------------------------------------------------------
                                 ORCA SCF
-------------------------------------------------------------------------------

------------
SCF SETTINGS
------------
Hamiltonian:
 Density Functional     Method          .... DFT(GTOs)
 Exchange Functional    Exchange        .... B88
   X-Alpha parameter    XAlpha          ....  0.666667
   Becke's b parameter  XBeta           ....  0.004200
 Correlation Functional Correlation     .... LYP
 LDA part of GGA corr.  LDAOpt          .... VWN-5
 Gradients option       PostSCFGGA      .... off
 Hybrid DFT is turned on
   Fraction HF Exchange ScalHFX         ....  0.200000
   Scaling of DF-GGA-X  ScalDFX         ....  0.720000
   Scaling of DF-GGA-C  ScalDFC         ....  0.810000
   Scaling of DF-LDA-C  ScalLDAC        ....  1.000000
   Perturbative correction              ....  0.000000
   Density functional embedding theory  .... OFF
   NL short-range parameter             ....  4.800000


General Settings:
 Integral files         IntName         .... geo_opt
 Hartree-Fock type      HFTyp           .... RHF
 Total Charge           Charge          ....    0
 Multiplicity           Mult            ....    1
 Number of Electrons    NEL             ....   18
 Basis Dimension        Dim             ....   92
 Nuclear Repulsion      ENuc            ....     79.4697480365 Eh

Convergence Acceleration:
 DIIS                   CNVDIIS         .... on
   Start iteration      DIISMaxIt       ....    12
   Startup error        DIISStart       ....  0.200000
   # of expansion vecs  DIISMaxEq       ....     5
   Bias factor          DIISBfac        ....   1.050
   Max. coefficient     DIISMaxC        ....  10.000
 Newton-Raphson         CNVNR           .... off
 SOSCF                  CNVSOSCF        .... on
   Start iteration      SOSCFMaxIt      ....   150
   Startup grad/error   SOSCFStart      ....  0.003300
 Level Shifting         CNVShift        .... on
   Level shift para.    LevelShift      ....    0.2500
   Turn off err/grad.   ShiftErr        ....    0.0010
 Zerner damping         CNVZerner       .... off
 Static damping         CNVDamp         .... on
   Fraction old density DampFac         ....    0.7000
   Max. Damping (<1)    DampMax         ....    0.9800
   Min. Damping (>=0)   DampMin         ....    0.0000
   Turn off err/grad.   DampErr         ....    0.1000
 Fernandez-Rico         CNVRico         .... off

SCF Procedure:
 Maximum # iterations   MaxIter         ....   125
 SCF integral mode      SCFMode         .... Direct
   Integral package                     .... LIBINT
 Reset frequency        DirectResetFreq ....    20
 Integral Threshold     Thresh          ....  2.500e-11 Eh
 Primitive CutOff       TCut            ....  2.500e-12 Eh

Convergence Tolerance:
 Convergence Check Mode ConvCheckMode   .... Total+1el-Energy
 Convergence forced     ConvForced      .... 0
 Energy Change          TolE            ....  1.000e-08 Eh
 1-El. energy change                    ....  1.000e-05 Eh
 Orbital Gradient       TolG            ....  1.000e-05
 Orbital Rotation angle TolX            ....  1.000e-05
 DIIS Error             TolErr          ....  5.000e-07


Diagonalization of the overlap matrix:
Smallest eigenvalue                        ... 3.256e-05
Time for diagonalization                   ...    0.194 sec
Threshold for overlap eigenvalues          ... 1.000e-08
Number of eigenvalues below threshold      ... 0
Time for construction of square roots      ...    0.056 sec
Total time needed                          ...    0.249 sec

-------------------
DFT GRID GENERATION
-------------------

General Integration Accuracy     IntAcc      ...  4.340
Radial Grid Type                 RadialGrid  ... Gauss-Chebyshev
Angular Grid (max. acc.)         AngularGrid ... Lebedev-110
Angular grid pruning method      GridPruning ... 3 (G Style)
Weight generation scheme         WeightScheme... Becke
Basis function cutoff            BFCut       ...    1.0000e-11
Integration weight cutoff        WCut        ...    1.0000e-14
Grids for H and He will be reduced by one unit

# of grid points (after initial pruning)     ...   7328 (   0.1 sec)
# of grid points (after weights+screening)   ...   6900 (   0.0 sec)
nearest neighbour list constructed           ...    0.0 sec
Grid point re-assignment to atoms done       ...    0.0 sec
Grid point division into batches done        ...    0.0 sec
Reduced shell lists constructed in    0.0 sec

Total number of grid points                  ...     6900
Total number of batches                      ...      112
Average number of points per batch           ...       61
Average number of grid points per atom       ...      986
Average number of shells per batch           ...    35.62 (84.82%)
Average number of basis functions per batch  ...    79.38 (86.28%)
Average number of large shells per batch     ...    34.38 (96.49%)
Average number of large basis fcns per batch ...    76.88 (96.85%)
Maximum spatial batch extension              ...  11.02, 12.00, 14.96 au
Average spatial batch extension              ...   0.19,  0.19,  0.21 au

Time for grid setup =    0.229 sec

------------------------------
INITIAL GUESS: MODEL POTENTIAL
------------------------------
Loading Hartree-Fock densities                     ... done
Calculating cut-offs                               ... done
Setting up the integral package                    ... done
Initializing the effective Hamiltonian             ... done
Starting the Coulomb interaction                   ... done (   0.0 sec)
Reading the grid                                   ... done
Mapping shells                                     ... done
Starting the XC term evaluation                    ... done (   0.0 sec)
  promolecular density results
     # of electrons  =     17.993878090
     EX              =    -14.269738997
     EC              =     -0.627955859
     EX+EC           =    -14.897694856
Transforming the Hamiltonian                       ... done (   0.0 sec)
Diagonalizing the Hamiltonian                      ... done (   0.0 sec)
Back transforming the eigenvectors                 ... done (   0.0 sec)
Now organizing SCF variables                       ... done
                      ------------------
                      INITIAL GUESS DONE (   0.5 sec)
                      ------------------
----------------------
INITIAL GUESS ORBITALS
----------------------
                      0         1         2         3         4         5   
                 -15.16861 -11.13573  -1.96876  -1.55562  -1.48164  -1.27095
                   2.00000   2.00000   2.00000   2.00000   2.00000   2.00000
                  --------  --------  --------  --------  --------  --------
  0N   1s         0.447853  0.006097  0.113884  0.000130  0.012264 -0.035446
  0N   2s         0.623824  0.010142  0.250493  0.000330  0.026281 -0.075940
  0N   3s         0.057288  0.002246 -0.396506 -0.000673 -0.021591  0.116545
  0N   4s        -0.120695  0.070723  0.903029  0.004406 -0.175244 -1.149854
  0N   5s        -0.024890  0.014149  0.297324  0.001153 -0.103351 -0.556984
  0N   1pz       -0.008604  0.000013  0.119898  0.242507  0.319992  0.019679
  0N   1px       -0.011394  0.004389  0.236955 -0.000153 -0.321843 -0.126661
  0N   1py       -0.004970 -0.000007  0.069159 -0.418710  0.185851  0.011015
  0N   2pz        0.006620 -0.005322 -0.062503 -0.047096 -0.013688  0.014293
  0N   2px        0.024851 -0.029825 -0.237857 -0.002264  0.124510  0.459205
  0N   2py        0.003820 -0.003114 -0.036862  0.083016 -0.007365  0.009538
  0N   3pz        0.001449 -0.003021 -0.028024 -0.014952 -0.010811 -0.006373
  0N   3px        0.013249  0.000847 -0.088787 -0.000553  0.032035  0.221661
  0N   3py        0.000836 -0.001747 -0.016571  0.026348 -0.006146 -0.002979
  0N   1dz2      -0.002193  0.002229  0.010498 -0.028235 -0.024091 -0.005584
  0N   1dxz      -0.000561 -0.000043 -0.010969 -0.013077 -0.010061  0.001875
  0N   1dyz      -0.001639 -0.000219  0.002470  0.018921 -0.006796 -0.000522
  0N   1dx2y2     0.001896 -0.004110 -0.015252 -0.016220  0.034251  0.009155
  0N   1dxy      -0.000338 -0.000005 -0.005977  0.022362 -0.005893  0.000795
  0N   2dz2       0.001333  0.000121 -0.021967  0.047040  0.015667  0.055955
  0N   2dxz      -0.000047  0.004080  0.010003  0.018181  0.017286  0.003084
  0N   2dyz       0.000963 -0.000173 -0.010471 -0.031404 -0.022921 -0.002561
  0N   2dx2y2    -0.001212 -0.000427  0.025025  0.028152 -0.052653 -0.099166
  0N   2dxy      -0.000040  0.002369  0.006170 -0.032257  0.009930  0.001454
  0N   1f0       -0.000010 -0.000489 -0.000492 -0.007233  0.001247  0.001655
  0N   1f+1       0.001085 -0.002479 -0.004737  0.003044  0.000413 -0.002604
  0N   1f-1       0.001159 -0.000617 -0.002337 -0.000133  0.001865 -0.003089
  0N   1f+2       0.000015  0.000634  0.000686 -0.005602 -0.001601 -0.002107
  0N   1f-2      -0.000679  0.000802 -0.002385 -0.002242 -0.005487  0.001290
  0N   1f+3       0.002049 -0.003957 -0.004241 -0.002115  0.005993 -0.004298
  0N   1f-3      -0.000316 -0.000323  0.000154 -0.000255  0.001007  0.002046
  1C   1s         0.002108 -0.464695  0.104252 -0.000122 -0.063060  0.090540
  1C   2s         0.001736 -0.604333  0.212872 -0.000387 -0.128125  0.181991
  1C   3s        -0.001974 -0.012735 -0.368803 -0.002753  0.242324  0.210055
  1C   4s         0.071028  0.004413 -0.456042 -0.001062  0.186511  1.200464
  1C   5s         0.018522 -0.045649 -0.296703 -0.004871  0.370509  0.306352
  1C   1pz       -0.000147  0.000254  0.051609  0.214307  0.343256  0.093763
  1C   1px       -0.004354 -0.013667 -0.324602 -0.000019  0.138694  0.514365
  1C   1py       -0.000090  0.000130  0.030624 -0.370609  0.198867  0.053684
  1C   2pz       -0.004176  0.006949  0.029970 -0.015230 -0.009756 -0.003190
  1C   2px        0.041895 -0.041433 -0.397237 -0.000734  0.130905  0.518319
  1C   2py       -0.002423  0.003974  0.016156  0.022703 -0.005027 -0.008975
  1C   3pz       -0.001951  0.000348  0.008729 -0.009136 -0.015662 -0.021239
  1C   3px        0.004712  0.005058 -0.025788 -0.000601 -0.007585  0.126708
  1C   3py       -0.001128  0.000199  0.004518  0.016943 -0.009316 -0.012281
  1C   1dz2       0.001096  0.002257  0.015684  0.002400 -0.001884 -0.020321
  1C   1dxz       0.000831 -0.000041  0.009110  0.028166  0.040893  0.009239
  1C   1dyz       0.000495  0.000280 -0.001537 -0.001816 -0.006798 -0.000247
  1C   1dx2y2    -0.001329 -0.003549 -0.028393  0.001046 -0.004736  0.036505
  1C   1dxy       0.000472  0.000025  0.005841 -0.048546  0.023274  0.004757
  1C   2dz2      -0.003587  0.004341  0.040753 -0.045243  0.014008 -0.035785
  1C   2dxz       0.001445 -0.000161  0.005050  0.044199  0.063438  0.021817
  1C   2dyz       0.002392 -0.002043 -0.009340  0.030562  0.039831  0.018856
  1C   2dx2y2     0.008983 -0.009844 -0.079515 -0.026855  0.021924  0.089257
  1C   2dxy       0.000830 -0.000062  0.003862 -0.076699  0.036542  0.014222
  1C   1f0       -0.001132  0.000087  0.002151  0.000581 -0.000116 -0.003994
  1C   1f+1       0.000136  0.002218  0.001548  0.005895 -0.003564  0.001150
  1C   1f-1       0.000234  0.002866  0.005328  0.000365 -0.000762  0.009584
  1C   1f+2       0.001464 -0.000112 -0.003127  0.002313 -0.000404  0.004749
  1C   1f-2      -0.000223  0.000250 -0.003091 -0.004656 -0.017253  0.000314
  1C   1f+3       0.000388  0.002642  0.004921 -0.004527  0.011255  0.002851
  1C   1f-3      -0.001159 -0.000686  0.000737  0.003077  0.000171 -0.006066
  2H   1s         0.001869 -0.004792 -0.045963 -0.096442  0.102066 -0.156697
  2H   2s         0.009580 -0.028538 -0.129520 -0.203994  0.135227 -0.128532
  2H   3s        -0.000927  0.016135  0.064858 -0.042809 -0.084359  0.019002
  2H   1pz       -0.000410  0.000374  0.000311 -0.000588 -0.011520 -0.001211
  2H   1px        0.001315 -0.003650 -0.020849 -0.000155 -0.000487 -0.004868
  2H   1py        0.000395  0.007240  0.019562  0.014806 -0.021066  0.051186
  3H   1s         0.001874 -0.004857 -0.046598  0.096505  0.102206 -0.157362
  3H   2s         0.009575 -0.028683 -0.134451  0.205124  0.135690 -0.141318
  3H   3s        -0.000931  0.016144  0.064001  0.043910 -0.084923  0.019149
  3H   1pz        0.000135  0.006473  0.017568 -0.013183 -0.023845  0.042969
  3H   1px        0.001320 -0.003663 -0.020842 -0.000740 -0.000931 -0.004451
  3H   1py       -0.000556 -0.003300 -0.009546  0.008363  0.001081 -0.026586
  4H   1s         0.000308 -0.005074 -0.064615 -0.000070 -0.061358 -0.210516
  4H   2s        -0.001877 -0.018075 -0.100101 -0.001013 -0.133855 -0.264025
  4H   3s        -0.003862  0.015749  0.058381  0.001772 -0.156235 -0.035434
  4H   1pz        0.000576 -0.006342 -0.023193 -0.003038 -0.000008 -0.047233
  4H   1px        0.000046 -0.004344 -0.016292  0.000150  0.017455 -0.011957
  4H   1py        0.000331 -0.003655 -0.013707  0.006358 -0.000374 -0.028339
  5H   1s        -0.002934 -0.000091 -0.121220  0.148773 -0.130414  0.033005
  5H   2s         0.014436 -0.005817 -0.179826  0.126514 -0.104310  0.060872
  5H   3s        -0.005104 -0.003187  0.016855  0.005835 -0.008007 -0.069905
  5H   1pz       -0.000164  0.000257  0.000466 -0.003135  0.001117  0.002327
  5H   1px       -0.001537  0.005498  0.033742 -0.022537 -0.001644 -0.012940
  5H   1py       -0.000336  0.000402 -0.025931 -0.018220 -0.007471  0.019008
  6H   1s        -0.002906 -0.000103 -0.121592 -0.149587 -0.130259  0.032986
  6H   2s         0.014457 -0.005828 -0.180097 -0.127703 -0.104649  0.059115
  6H   3s        -0.005106 -0.003175  0.017993 -0.004194 -0.007846 -0.070648
  6H   1pz       -0.000372  0.000455 -0.022679  0.017174 -0.005438  0.017908
  6H   1px       -0.001535  0.005498  0.033873  0.023022 -0.000947 -0.013239
  6H   1py        0.000021  0.000029  0.013484 -0.006004  0.004452 -0.007702
                      6         7         8         9        10        11   
                  -1.22120  -0.90705  -0.65107  -0.04398  -0.00845   0.01262
                   2.00000   2.00000   2.00000   0.00000   0.00000   0.00000
                  --------  --------  --------  --------  --------  --------
  0N   1s         0.051372  0.000025 -0.029898 -0.031659  0.001900 -0.006765
  0N   2s         0.114862  0.000015 -0.069570 -0.079650  0.004594 -0.015664
  0N   3s        -0.144836  0.000755  0.120804  0.236924 -0.011619  0.047242
  0N   4s        -0.638740 -0.007733  0.483881  0.986274 -0.160757 -1.331752
  0N   5s        -0.250658 -0.002414  0.178257  3.250177 -0.231416 -2.354499
  0N   1pz       -0.039543  0.206930  0.468818 -0.025061  0.077536 -0.085943
  0N   1px       -0.433586 -0.001408  0.161782  0.068990 -0.004660  0.009953
  0N   1py       -0.021820 -0.359652  0.270513 -0.023885 -0.142278 -0.039587
  0N   2pz       -0.006473  0.053878  0.244968 -0.065903  0.077156  0.109768
  0N   2px        0.258788  0.006367  0.031725 -0.218665  0.021095  0.255930
  0N   2py       -0.001541 -0.091716  0.140136 -0.041149 -0.094635  0.069445
  0N   3pz       -0.019482 -0.010419  0.071849 -0.228239  0.461183 -0.155914
  0N   3px        0.090700  0.000757  0.002871 -0.234604  0.040717  1.250769
  0N   3py       -0.011072  0.018862  0.040640 -0.222002 -0.755596 -0.037429
  0N   1dz2      -0.012517 -0.027122 -0.015102 -0.002469 -0.001217  0.001240
  0N   1dxz       0.037599  0.009152 -0.011251  0.000232 -0.011790  0.016446
  0N   1dyz       0.010565  0.018036 -0.022001 -0.002693  0.001094 -0.004350
  0N   1dx2y2     0.034297 -0.015579  0.000672  0.002422 -0.001017 -0.006666
  0N   1dxy       0.021522 -0.015818 -0.006384  0.001304  0.022604  0.007692
  0N   2dz2       0.038701  0.025953 -0.008503 -0.043327  0.012172  0.026360
  0N   2dxz      -0.037469 -0.027872 -0.027065  0.009424 -0.046528  0.025363
  0N   2dyz      -0.002605 -0.017863 -0.008897 -0.016580  0.000384 -0.013486
  0N   2dx2y2    -0.069349  0.013093  0.006202  0.050567  0.001413 -0.056602
  0N   2dxy      -0.021254  0.045560 -0.014571  0.011380  0.073883  0.007791
  0N   1f0       -0.002309 -0.006285 -0.004892  0.002093 -0.002122 -0.001744
  0N   1f+1       0.002046 -0.002611 -0.003164  0.004022  0.006944 -0.005149
  0N   1f-1      -0.003330  0.002251 -0.001376  0.002316  0.000462  0.000279
  0N   1f+2       0.003352  0.000979  0.006133 -0.002426  0.000850  0.001627
  0N   1f-2       0.005233  0.001584 -0.007888  0.000557 -0.005732  0.001226
  0N   1f+3      -0.002043  0.002228  0.002981  0.002982 -0.006260 -0.006278
  0N   1f-3      -0.001609  0.007243 -0.003825  0.001383  0.001919 -0.001634
  1C   1s        -0.028698 -0.000091  0.008133 -0.031313  0.002162  0.021340
  1C   2s        -0.058336 -0.000169  0.015783 -0.069260  0.004768  0.047896
  1C   3s         0.311514  0.004428 -0.044370 -0.053420  0.003762  0.055749
  1C   4s         0.515563  0.007404 -0.110661 -0.940210  0.138514  0.922942
  1C   5s         0.804282 -0.003406 -0.070563  1.569806 -0.557295 13.449725
  1C   1pz       -0.361064 -0.278342 -0.328084 -0.051316  0.092284 -0.183886
  1C   1px        0.221027  0.000730  0.006505 -0.093382  0.008109  0.090747
  1C   1py       -0.209264  0.481647 -0.188386 -0.039213 -0.182576 -0.091153
  1C   2pz        0.010003 -0.019496  0.024457  0.138342 -0.306875  0.328097
  1C   2px        0.293891  0.001963 -0.078834 -0.540291  0.060077  0.955907
  1C   2py        0.005702  0.026367  0.015066  0.057911  0.593977  0.173098
  1C   3pz       -0.025844 -0.029118 -0.045102 -0.043524  0.023019 -0.275153
  1C   3px        0.021799  0.000839 -0.002468 -0.459840  0.057659  0.320640
  1C   3py       -0.015462  0.051000 -0.026684  0.188108  0.127386 -0.177179
  1C   1dz2       0.003401 -0.012174  0.009045 -0.004250  0.007969 -0.011731
  1C   1dxz      -0.020625  0.007800  0.043765 -0.000257  0.014329 -0.028350
  1C   1dyz       0.008994  0.008337  0.010286  0.002065 -0.007941 -0.009223
  1C   1dx2y2     0.003911 -0.007181 -0.003593  0.012373  0.003558  0.008968
  1C   1dxy      -0.011910 -0.014606  0.025823 -0.001748 -0.028719 -0.014009
  1C   2dz2      -0.039403  0.030739 -0.012494  0.002278 -0.130035 -0.168297
  1C   2dxz      -0.046106 -0.021055 -0.010839 -0.005185  0.015812 -0.078730
  1C   2dyz      -0.032551 -0.019127 -0.050454 -0.037055  0.057864 -0.132466
  1C   2dx2y2     0.030189  0.018549 -0.036685 -0.031637 -0.063516  0.152374
  1C   2dxy      -0.026656  0.036373 -0.005691  0.007628 -0.045509 -0.042174
  1C   1f0        0.001528  0.005680  0.001827  0.000319 -0.000848  0.008806
  1C   1f+1       0.013131 -0.015716  0.003933  0.002170  0.011097  0.001596
  1C   1f-1       0.005143 -0.001477 -0.000427 -0.007077  0.001480  0.012630
  1C   1f+2      -0.001664  0.000820 -0.002027 -0.000564  0.002653 -0.010645
  1C   1f-2       0.017812  0.011705  0.004430  0.007048 -0.008743  0.004367
  1C   1f+3       0.001326  0.012302  0.001341 -0.008395 -0.009097  0.000755
  1C   1f-3       0.000611 -0.005287  0.001768  0.002504  0.008289  0.003444
  2H   1s        -0.067383  0.198464 -0.105650  0.015916 -0.015610 -0.031949
  2H   2s        -0.087042  0.252119 -0.216797 -0.016230 -0.672825 -0.109124
  2H   3s        -0.188721 -0.063160  0.027318 -1.152015  1.186461 -2.030860
  2H   1pz        0.009287  0.009007  0.001835  0.008374 -0.011108  0.018804
  2H   1px        0.004267  0.004686 -0.004937  0.008935 -0.016134 -0.036624
  2H   1py        0.008408 -0.010332  0.009198 -0.033299  0.026172  0.038492
  3H   1s        -0.067091 -0.198801 -0.106787  0.019612  0.009593 -0.033470
  3H   2s        -0.085685 -0.248374 -0.217210 -0.078404  0.589306 -0.124303
  3H   3s        -0.190172  0.064550  0.024419 -0.694870 -0.771851 -1.966591
  3H   1pz        0.011577  0.004508  0.008466 -0.021404 -0.006760  0.040412
  3H   1px        0.005349 -0.003492 -0.005103  0.009065  0.011570 -0.036022
  3H   1py        0.003473 -0.013545 -0.003192  0.027052  0.025894 -0.005301
  4H   1s         0.139108  0.000150  0.182346  0.043659 -0.001665 -0.018120
  4H   2s         0.205185 -0.004016  0.331930  0.214002  0.075626  0.813412
  4H   3s        -0.252604  0.002229 -0.007565 -1.139122  0.239996 -4.808749
  4H   1pz        0.007548  0.003505  0.004870  0.032311 -0.014782  0.021573
  4H   1px        0.002987  0.000356  0.005073  0.006542  0.004631 -0.001882
  4H   1py        0.004379 -0.006288  0.003095  0.023518  0.029173  0.010250
  5H   1s        -0.134465  0.176892 -0.049639  0.021499 -0.009663  0.010742
  5H   2s        -0.153148  0.221022 -0.083980 -0.354852 -0.174470  0.152444
  5H   3s        -0.060064  0.052148 -0.004433 -1.260973 -2.086132 -1.638144
  5H   1pz        0.003622  0.002672  0.017511  0.001359  0.003264 -0.004415
  5H   1px       -0.024099  0.000548  0.009778  0.011345  0.014841  0.007865
  5H   1py       -0.023089  0.005109 -0.003660  0.004388  0.017820  0.019615
  6H   1s        -0.134116 -0.178226 -0.050345  0.022114  0.008204  0.009367
  6H   2s        -0.154898 -0.222367 -0.084299 -0.333474  0.277946  0.118495
  6H   3s        -0.059855 -0.051884 -0.003749 -1.077005  2.252572 -1.856282
  6H   1pz       -0.018336 -0.005914  0.006289 -0.000410 -0.012145  0.018005
  6H   1px       -0.024592 -0.002419  0.009497  0.008962 -0.017830  0.011738
  6H   1py        0.013928 -0.000671  0.017284 -0.000940  0.005944 -0.013294
                     12        13        14        15        16        17   
                   0.03520   0.07516   0.07778   0.09352   0.15695   0.19784
                   0.00000   0.00000   0.00000   0.00000   0.00000   0.00000
                  --------  --------  --------  --------  --------  --------
  0N   1s         0.024455 -0.000017 -0.000626  0.008475 -0.000158  0.002443
  0N   2s         0.057049  0.000355 -0.001233  0.022859 -0.000414  0.008789
  0N   3s        -0.116373 -0.014129  0.030397 -0.117229  0.000204 -0.033540
  0N   4s        -0.354713 -0.010598  0.479310  0.729793  0.031064  3.972940
  0N   5s        -2.437383 -0.484736  0.807578 -0.295470  0.090317  9.534965
  0N   1pz       -0.044568 -0.034743 -0.047015  0.001890 -0.057640  0.171748
  0N   1px       -0.006831  0.027055 -0.040038  0.146741  0.000329  0.069382
  0N   1py       -0.019319  0.071686 -0.006221 -0.013332  0.101094  0.102662
  0N   2pz        0.086136 -0.174803 -0.090304 -0.094677  0.046817 -0.264106
  0N   2px        0.128503 -0.048195  0.200239 -0.191785 -0.008107 -0.520435
  0N   2py        0.051923  0.284990  0.015377 -0.108973 -0.085847 -0.132172
  0N   3pz        0.081508 -0.581490 -0.967086 -0.663113  0.171542 -1.321057
  0N   3px        0.286434  0.146219  0.113251  0.451881 -0.011081 -2.748273
  0N   3py        0.071369  1.049980 -0.332964 -0.574772 -0.278765 -0.746900
  0N   1dz2       0.002443 -0.026224  0.007822  0.022214  0.013504  0.000590
  0N   1dxz       0.010516 -0.004183 -0.007454 -0.006572  0.003614 -0.012961
  0N   1dyz      -0.000267  0.012201  0.040121  0.005941 -0.009585  0.002848
  0N   1dx2y2    -0.004394 -0.021735  0.018370 -0.020655  0.008009 -0.000050
  0N   1dxy       0.004671  0.007651 -0.002797 -0.005213 -0.005990 -0.007860
  0N   2dz2       0.007160 -0.016438  0.045481  0.042648 -0.024415 -0.020829
  0N   2dxz      -0.038301  0.041491 -0.040254  0.094414  0.067204 -0.006091
  0N   2dyz      -0.005683 -0.007495  0.054093 -0.012428  0.013932 -0.025677
  0N   2dx2y2    -0.010607 -0.011597 -0.015526 -0.072996 -0.013619  0.008593
  0N   2dxy      -0.027460 -0.013061 -0.024639  0.061954 -0.118634 -0.003340
  0N   1f0       -0.001667  0.006482 -0.001026 -0.000391  0.002108  0.000120
  0N   1f+1      -0.004206  0.000452 -0.003337 -0.008337 -0.001551 -0.000748
  0N   1f-1       0.003334  0.001908 -0.008965  0.001093 -0.002356 -0.009513
  0N   1f+2       0.001588  0.004315  0.004126 -0.001727 -0.005088  0.001086
  0N   1f-2      -0.002941  0.000879 -0.006760  0.000240  0.001227  0.001276
  0N   1f+3      -0.000863 -0.001516  0.001267 -0.010861  0.001052 -0.001720
  0N   1f-3      -0.002294  0.001541  0.000583  0.000013 -0.009060  0.001879
  1C   1s        -0.015481  0.003254 -0.007250  0.023461  0.000269  0.009275
  1C   2s        -0.032480  0.007194 -0.015913  0.053861  0.000717  0.019336
  1C   3s        -0.085191 -0.015099  0.104535  0.012468 -0.003649  0.168300
  1C   4s         1.290620  0.019113  0.214868 -0.376467  0.015444 -3.464690
  1C   5s        -0.184782  2.895171 -1.351363  1.755901 -1.192066-39.592223
  1C   1pz       -0.121535  0.069252  0.048520  0.064783  0.069834 -0.058732
  1C   1px       -0.086470 -0.014999  0.037753 -0.046010  0.001116 -0.012916
  1C   1py       -0.062561 -0.110750  0.002923  0.057239 -0.118607 -0.032755
  1C   2pz        0.054172 -0.010452 -0.423502  0.151616 -0.041791  0.665292
  1C   2px        0.120071 -0.014794  0.116462 -0.325295 -0.033116 -2.066780
  1C   2py        0.017909  0.231695 -0.170533  0.109474  0.048338  0.378856
  1C   3pz        0.000211  1.413492  4.559369  0.118074 -1.590018  0.955689
  1C   3px        1.612290  0.526283 -0.608925  3.117367  0.049506 -0.885632
  1C   3py        0.017832 -4.171157  1.833689  0.653208  2.721166  0.609004
  1C   1dz2       0.009227 -0.070144  0.018481  0.043697  0.014964  0.019097
  1C   1dxz      -0.028304  0.006048 -0.012578  0.015446  0.011572  0.019933
  1C   1dyz      -0.012681  0.038285  0.082257  0.021764 -0.012471  0.025514
  1C   1dx2y2    -0.035037 -0.047133  0.022436 -0.020637  0.009494 -0.012385
  1C   1dxy      -0.014799 -0.000605 -0.006033  0.008805 -0.018429  0.012841
  1C   2dz2      -0.034956 -0.234288  0.063410  0.138913 -0.024519  0.182422
  1C   2dxz      -0.089442  0.060968  0.034459  0.089772  0.083763 -0.028065
  1C   2dyz      -0.078589  0.124880  0.313239  0.077185  0.015561 -0.088756
  1C   2dx2y2    -0.039266 -0.152754  0.097795 -0.084574 -0.019581 -0.454691
  1C   2dxy      -0.046479 -0.075506  0.002394  0.055474 -0.132068 -0.012911
  1C   1f0        0.007470 -0.004256  0.005635 -0.004751 -0.004051 -0.005793
  1C   1f+1      -0.012213 -0.017581 -0.002248  0.002889  0.000627  0.010032
  1C   1f-1      -0.013689  0.002234  0.002001  0.013088  0.002638  0.015499
  1C   1f+2      -0.008916  0.004331 -0.007604  0.006855  0.004839  0.007313
  1C   1f-2      -0.001968  0.012956  0.006811  0.006508 -0.001517  0.000627
  1C   1f+3      -0.009118  0.013975 -0.001685 -0.007982 -0.001101  0.015913
  1C   1f-3       0.011895  0.001125  0.006641 -0.007470  0.010097 -0.007705
  2H   1s         0.029458  0.051403 -0.023399 -0.005268 -0.044730 -0.014152
  2H   2s        -0.152602 -0.562806  0.155899 -0.088735 -0.569070 -1.213946
  2H   3s         0.927610  7.218608 -2.912258 -0.170171 -1.367703 10.891403
  2H   1pz        0.010695  0.008815  0.033444 -0.000965 -0.015215  0.006530
  2H   1px        0.032635 -0.022288 -0.008687  0.029906 -0.036192 -0.031034
  2H   1py       -0.004295  0.052373 -0.003787  0.021068  0.049614  0.072539
  3H   1s         0.028355 -0.039374 -0.037250  0.007573  0.045341 -0.016582
  3H   2s        -0.150105  0.469872  0.397345 -0.115956  0.543941 -1.190815
  3H   3s         0.976236 -6.868682 -5.234692  1.468438  2.144432 11.046644
  3H   1pz        0.000816 -0.048544 -0.000019  0.029638 -0.032634  0.066535
  3H   1px        0.037763  0.027514  0.002125  0.023848  0.036011 -0.025287
  3H   1py        0.011572  0.000437  0.035921 -0.013144  0.038340 -0.028324
  4H   1s         0.027401 -0.010476  0.065541  0.013721 -0.001390  0.055254
  4H   2s         0.353777  0.027857 -0.553255 -0.400284 -0.026545  0.341845
  4H   3s        -0.821027 -1.815016  8.235588  2.997139  0.334777  9.183812
  4H   1pz        0.052121  0.015624 -0.011716 -0.074008 -0.016236 -0.020423
  4H   1px        0.074066 -0.003953  0.005630  0.001072  0.002883  0.025423
  4H   1py        0.031056 -0.038725 -0.012311 -0.035472  0.028531 -0.009853
  5H   1s        -0.030252  0.039519 -0.028817  0.009082 -0.048261 -0.017733
  5H   2s         0.053902  0.670274 -0.565208 -0.234599 -0.687294 -1.264595
  5H   3s         0.309650 -0.518226  0.620382 -3.037613  4.024745  2.588342
  5H   1pz       -0.001958 -0.016820 -0.032941 -0.021267  0.002969 -0.010722
  5H   1px       -0.017290 -0.044196  0.021472  0.026084  0.027541  0.039436
  5H   1py       -0.018575  0.002593 -0.025392  0.012629 -0.055942 -0.066847
  6H   1s        -0.030781 -0.022839 -0.041188  0.018045  0.049424 -0.022300
  6H   2s         0.049182 -0.494273 -0.783337 -0.067525  0.682850 -1.316690
  6H   3s         0.137613 -0.846176  0.475606 -2.917197 -3.938613  2.540130
  6H   1pz       -0.011473  0.016697 -0.034623 -0.001043  0.046585 -0.063588
  6H   1px       -0.016494  0.042242  0.033431  0.011923 -0.027641  0.039559
  6H   1py        0.006500  0.011383 -0.011259 -0.028354 -0.030368  0.022663
                     18        19        20        21        22        23   
                   0.26970   0.30955   0.34008   0.36594   0.37773   0.40598
                   0.00000   0.00000   0.00000   0.00000   0.00000   0.00000
                  --------  --------  --------  --------  --------  --------
  0N   1s        -0.017705 -0.000000 -0.013374  0.039602  0.019148  0.008101
  0N   2s        -0.045820  0.000132 -0.026524  0.088302  0.043010  0.017317
  0N   3s         0.127989 -0.013244 -0.204805  0.091427  0.042736  0.060170
  0N   4s        -1.767756  0.114449  2.644296  0.208906  0.496957  1.445486
  0N   5s        -0.228628  0.393504  4.773688 12.787569  7.165768  7.837904
  0N   1pz       -0.068422  0.070556 -0.051250 -0.077901  0.091977 -0.132594
  0N   1px        0.019936  0.006021  0.111472 -0.010368  0.006028  0.098065
  0N   1py       -0.032222 -0.129892 -0.003931  0.088152 -0.192722 -0.073874
  0N   2pz        0.187265 -0.453481  0.430908 -0.298715 -0.054678 -0.047777
  0N   2px        0.412140 -0.075685 -1.074379 -0.117412 -0.111694 -0.087574
  0N   2py        0.129256  0.834043  0.217554 -0.086719 -0.217581 -0.038775
  0N   3pz        1.260665 -2.020737  2.034565  0.274405 -0.971708  2.474453
  0N   3px        0.954651 -0.344580 -6.155066 -1.403772 -1.129325 -3.146157
  0N   3py        0.679691  3.780732  0.808939 -1.054214  1.591702  1.365792
  0N   1dz2      -0.013609 -0.023640  0.007032 -0.020950  0.031188  0.030995
  0N   1dxz       0.003809 -0.006749  0.010561  0.030819  0.001471  0.010094
  0N   1dyz      -0.000838  0.014756 -0.028786  0.003519 -0.027706  0.052583
  0N   1dx2y2     0.019410 -0.016375 -0.048512 -0.012561  0.016066  0.007634
  0N   1dxy       0.001427  0.013813  0.003046  0.003360  0.030806  0.007135
  0N   2dz2      -0.023223  0.101666 -0.136960 -0.050076  0.020843  0.026647
  0N   2dxz      -0.079873  0.132344 -0.056661 -0.085741  0.117184 -0.203649
  0N   2dyz       0.027674 -0.074084 -0.051342 -0.082643 -0.089008  0.108960
  0N   2dx2y2     0.058777  0.077537  0.166690 -0.080771 -0.009185  0.070070
  0N   2dxy      -0.042585 -0.228263  0.000934  0.108134 -0.221294 -0.112315
  0N   1f0        0.001286 -0.003778  0.003808  0.011072 -0.011133 -0.009959
  0N   1f+1       0.002059 -0.015577  0.010246  0.004651 -0.011650  0.004522
  0N   1f-1       0.001107  0.002024  0.007565 -0.000914 -0.000340 -0.018074
  0N   1f+2      -0.000316  0.000867 -0.003520  0.001887 -0.016727  0.012153
  0N   1f-2      -0.003733  0.012202 -0.005348  0.011863  0.016026  0.002217
  0N   1f+3       0.005157  0.013355  0.014410 -0.022235 -0.000419  0.001213
  0N   1f-3      -0.000004  0.006546  0.001173  0.005760 -0.000464 -0.004509
  1C   1s        -0.017492  0.001233  0.016989  0.016703  0.008384  0.012371
  1C   2s        -0.039391  0.002369  0.031462  0.043481  0.021278  0.026251
  1C   3s         0.222650 -0.032880 -0.339248 -0.089527 -0.004986 -0.058821
  1C   4s         5.210800 -0.362787 -5.959071 -3.100234 -1.941083 -4.286877
  1C   5s       -82.944020 -2.753148-41.397528-30.143051-20.370209-25.148961
  1C   1pz       -0.043594  0.102402 -0.176674 -0.086287 -0.071749  0.025937
  1C   1px        0.076199 -0.006308 -0.145365  0.062376  0.027319  0.018687
  1C   1py       -0.024520 -0.197312 -0.087950 -0.053629 -0.039281  0.007290
  1C   2pz       -0.541010  1.019856 -0.934372 -0.957573  0.226116 -0.724125
  1C   2px        0.347790 -0.134069 -2.234525 -0.190424 -0.344133 -0.658380
  1C   2py       -0.340354 -1.836497 -0.325259  0.195172 -1.360854 -0.496575
  1C   3pz        0.791623 -2.846458  4.381504  0.964592  3.906875 -4.322928
  1C   3px        4.473358 -0.206042 -3.807577 -2.081108 -1.270967 -2.903980
  1C   3py        0.542610  5.472236  2.515078  3.438660 -3.329607 -2.467028
  1C   1dz2      -0.012522 -0.038672 -0.037057 -0.026001  0.099187  0.091413
  1C   1dxz      -0.019220  0.025876 -0.014928 -0.044115  0.041923 -0.082422
  1C   1dyz      -0.008844  0.023130 -0.037248 -0.028202 -0.092507  0.123670
  1C   1dx2y2    -0.000449 -0.022666  0.008016 -0.136514 -0.007974 -0.020428
  1C   1dxy      -0.009241 -0.045969  0.002363  0.035806 -0.097477 -0.049276
  1C   2dz2      -0.014757  0.144103  0.118625 -0.316147  0.723408  0.505584
  1C   2dxz      -0.060219  0.074876 -0.100023 -0.122324  0.127838 -0.365407
  1C   2dyz       0.055405 -0.099066 -0.038020  0.044606 -0.526248  0.677500
  1C   2dx2y2     0.058234  0.049735 -0.412926 -0.502512  0.168504 -0.068827
  1C   2dxy      -0.021511 -0.150817 -0.028168  0.097862 -0.271236 -0.203226
  1C   1f0        0.004838 -0.014504  0.006439 -0.004084  0.005337 -0.011681
  1C   1f+1      -0.018094 -0.025963  0.002926  0.042380  0.034956  0.028188
  1C   1f-1      -0.026338  0.007820  0.005054  0.000519 -0.008318 -0.010271
  1C   1f+2      -0.006519  0.014715 -0.007884  0.008056 -0.011465  0.018646
  1C   1f-2      -0.005008  0.021754  0.008017  0.038003  0.012908  0.018955
  1C   1f+3      -0.019071  0.019733 -0.005291  0.029768  0.009037  0.016649
  1C   1f-3       0.013287  0.034384  0.004263  0.012403 -0.022821 -0.010983
  2H   1s         0.004940 -0.000025 -0.006660  0.040490  0.022257 -0.001887
  2H   2s        -0.460846  1.331770  0.075405  0.075066  1.621701  0.720851
  2H   3s        25.364489 -9.930243  3.902651  1.344475  9.997193  8.816204
  2H   1pz        0.001827 -0.005613  0.036539  0.024263  0.070713 -0.054135
  2H   1px        0.006412  0.000153  0.018608 -0.009667  0.051743  0.050687
  2H   1py        0.024653  0.014078 -0.001637 -0.050756  0.051109  0.044924
  3H   1s         0.003249 -0.000988 -0.007831  0.035480  0.018389 -0.005420
  3H   2s        -0.511327 -1.323909  0.383143  1.326479 -0.894321  0.524915
  3H   3s        25.616928 10.613504  3.685776  8.228216 -3.398204  8.886101
  3H   1pz        0.026545 -0.007018  0.026654  0.048296 -0.066553  0.013145
  3H   1px        0.008274  0.005420  0.024925  0.033774 -0.037622  0.046869
  3H   1py       -0.009741  0.019066  0.033184  0.057803  0.015108 -0.074542
  4H   1s        -0.005315  0.000312  0.004590 -0.025387 -0.011387  0.050608
  4H   2s        -1.181953 -0.013746 -0.768995 -0.625327 -0.563107 -0.206817
  4H   3s        28.566556  1.118678 17.576492 12.236626  8.211599 -2.932924
  4H   1pz       -0.012562 -0.005303 -0.023204 -0.061462  0.018121  0.076840
  4H   1px       -0.001188 -0.003293 -0.021126 -0.057789 -0.034377 -0.062442
  4H   1py       -0.004463  0.007077 -0.006998  0.022312 -0.093943  0.046665
  5H   1s        -0.000456  0.049260  0.067961  0.022282 -0.112243 -0.040604
  5H   2s         0.572340  1.484734  1.271810 -0.750328 -1.392009 -0.528661
  5H   3s         3.577098  8.003737  7.823330  0.115427  2.234818  3.581255
  5H   1pz        0.017546 -0.029823  0.011596  0.025843  0.005073  0.032571
  5H   1px       -0.024144 -0.107912 -0.076268  0.082544 -0.053482 -0.052726
  5H   1py        0.052432  0.025413  0.051973 -0.049947 -0.040574 -0.019893
  6H   1s        -0.006225 -0.041884  0.058691 -0.075377  0.085068 -0.037668
  6H   2s         0.514291 -1.300818  1.275532 -1.478713  0.215053 -0.462407
  6H   3s         3.714209 -7.103249  8.697679  1.537483 -0.147742  3.681084
  6H   1pz        0.050173  0.002136  0.051661 -0.042938 -0.001293  0.001417
  6H   1px       -0.024931  0.099495 -0.093137  0.002717  0.088804 -0.055579
  6H   1py       -0.009758  0.037028 -0.019662  0.045959  0.022110  0.040305
                     24        25        26        27        28        29   
                   0.46404   0.51763   0.55796   0.66027   0.66150   0.71049
                   0.00000   0.00000   0.00000   0.00000   0.00000   0.00000
                  --------  --------  --------  --------  --------  --------
  0N   1s         0.001142  0.005987 -0.019074  0.008734 -0.000330  0.018094
  0N   2s         0.002565  0.016379 -0.040082  0.020926 -0.000230  0.056116
  0N   3s         0.005429  0.320939 -0.043700  0.023478 -0.027771 -0.453102
  0N   4s         0.080601 -1.710635  4.538700 -6.376923  0.191709 -1.718294
  0N   5s         0.200387-11.886864 -0.586299 -4.165046  0.171235 -2.685566
  0N   1pz        0.013334  0.004365  0.095940  0.165405  0.110321  0.028840
  0N   1px        0.006468  0.259371  0.089100 -0.031666  0.000850 -0.088801
  0N   1py       -0.030161  0.006693  0.059931  0.075449 -0.208107  0.036919
  0N   2pz       -0.192414  0.222365  0.259189  1.789854  0.985913 -0.494693
  0N   2px       -0.005581  1.204889  0.214930  0.448385 -0.032494 -1.124084
  0N   2py        0.302307  0.122067  0.170344  0.876388 -1.997641 -0.184795
  0N   3pz       -0.848341 -0.275039 -0.941769  1.127498  0.904079 -0.081508
  0N   3px       -0.054283  2.441906  0.368448  1.623036 -0.046534  1.055281
  0N   3py        1.553637 -0.234665 -0.571352  0.539898 -1.790511 -0.000729
  0N   1dz2      -0.009483 -0.012711 -0.008069  0.004726  0.018059  0.007497
  0N   1dxz       0.037782 -0.030178  0.043369 -0.003698  0.003385  0.033079
  0N   1dyz       0.006445 -0.005073  0.006723 -0.051690 -0.008496  0.002890
  0N   1dx2y2    -0.004861  0.016238  0.019463 -0.062933  0.013066 -0.011048
  0N   1dxy      -0.064892 -0.015842  0.024853 -0.002376 -0.002846  0.020122
  0N   2dz2       0.180383  0.023008 -0.051162 -0.015205  0.042452 -0.016204
  0N   2dxz       0.043220 -0.038595  0.061683 -0.092622  0.028888  0.564529
  0N   2dyz      -0.121062  0.074711 -0.128615 -0.263112 -0.011778 -0.040937
  0N   2dx2y2     0.109568  0.016132 -0.071392 -0.261328  0.035951 -0.038528
  0N   2dxy      -0.074247 -0.016379  0.042905 -0.059858  0.009823  0.343354
  0N   1f0        0.000739  0.005348  0.009776 -0.038162 -0.027576  0.030488
  0N   1f+1      -0.032511 -0.011952 -0.005457 -0.016796 -0.031155  0.000263
  0N   1f-1      -0.001113  0.001480 -0.001291  0.005953  0.011288  0.015464
  0N   1f+2      -0.004874 -0.005342 -0.010747  0.047119  0.004391 -0.037142
  0N   1f-2       0.024480 -0.019865 -0.001691  0.009881  0.023374  0.010667
  0N   1f+3       0.024768  0.001695 -0.006797 -0.024378  0.025458 -0.013500
  0N   1f-3      -0.005231  0.003950  0.008767 -0.034483  0.045069  0.023925
  1C   1s        -0.000349 -0.020190 -0.006334 -0.005860 -0.001866 -0.051573
  1C   2s        -0.000879 -0.051321 -0.015512 -0.016636 -0.005215 -0.137061
  1C   3s         0.009325  0.305340  0.273013  0.749910  0.015443  1.479208
  1C   4s        -0.096701  3.607123  0.132464  5.517486 -0.644685 -3.440763
  1C   5s        -0.422720 47.461847 20.594737-12.341618  1.941882 14.951112
  1C   1pz       -0.151119  0.060707 -0.342974  0.143950  0.017998 -0.337348
  1C   1px        0.003868  0.148152  0.059499 -0.242987  0.001302 -0.316785
  1C   1py        0.260686  0.025287 -0.201114  0.084001 -0.085240 -0.209358
  1C   2pz       -1.388844  0.211309 -3.276332  1.157681  0.874444  0.153101
  1C   2px       -0.042585  2.455587 -1.214059  3.140345 -0.005788  0.042307
  1C   2py        2.448426  0.042673 -1.823824  0.501101 -1.701415  0.057994
  1C   3pz        1.290668  0.371050  0.420596 -0.544788 -0.350895 -1.146842
  1C   3px       -0.137198 -1.621406  0.344118  0.886762 -0.057341  0.450425
  1C   3py       -2.272233  0.363533  0.353507 -0.260097  0.612678 -0.712541
  1C   1dz2       0.066087  0.089877 -0.016271  0.006980 -0.050429  0.053814
  1C   1dxz      -0.060591  0.010609 -0.114582 -0.161642 -0.079501  0.100313
  1C   1dyz      -0.040485 -0.027308 -0.002256  0.018910  0.035257  0.088608
  1C   1dx2y2     0.028818 -0.193560  0.024080  0.000089 -0.027944  0.018479
  1C   1dxy       0.105244  0.002137 -0.064364 -0.080294  0.165844  0.052421
  1C   2dz2      -0.130460  0.271836  0.521407 -0.540088  0.346140  0.494769
  1C   2dxz      -0.159886  0.050637 -0.296010 -1.740253 -0.945677  1.018612
  1C   2dyz       0.102456 -0.151260  0.835656 -0.382341 -0.167912  0.728512
  1C   2dx2y2    -0.138345 -0.629710  0.026115  0.554820  0.217262  0.073196
  1C   2dxy       0.275398  0.025297 -0.177458 -0.851123  1.962030  0.540999
  1C   1f0       -0.009038  0.018437 -0.006984  0.037457  0.016671 -0.053561
  1C   1f+1      -0.059490  0.034521  0.008014  0.033929 -0.059069  0.029999
  1C   1f-1       0.001445 -0.054253  0.012153  0.026046 -0.009921  0.042346
  1C   1f+2       0.005343 -0.024115  0.010315 -0.049192 -0.010860  0.069544
  1C   1f-2       0.046843 -0.039056  0.030013  0.064895  0.036835 -0.006565
  1C   1f+3       0.049504  0.078084 -0.018358 -0.007370  0.041575  0.041735
  1C   1f-3       0.016695  0.033083 -0.010873  0.025292 -0.043940 -0.064104
  2H   1s        -0.111762  0.061636  0.035603 -0.026539  0.065391  0.049886
  2H   2s        -3.628400  0.455193  2.031200 -1.897100  4.471625  1.808692
  2H   3s         4.608203-14.214935 -6.972887  5.072076 -1.109594 -2.849941
  2H   1pz        0.001576 -0.007888 -0.100174  0.029945  0.006443 -0.087047
  2H   1px       -0.110677 -0.090213  0.058773 -0.046439 -0.092375 -0.057402
  2H   1py        0.085233 -0.064910 -0.012339  0.077907 -0.087333 -0.002822
  3H   1s         0.116283  0.056698  0.039793 -0.034964 -0.056310  0.055250
  3H   2s         3.586668  0.273334  2.154632 -2.406176 -3.801504  1.706367
  3H   3s        -4.510019-13.815695 -6.697605  5.105763 -0.113536 -2.813484
  3H   1pz       -0.075914 -0.057630 -0.059981  0.090797  0.054297 -0.046685
  3H   1px        0.107662 -0.096274  0.058914 -0.032074  0.093000 -0.068722
  3H   1py        0.042497  0.026627 -0.080384 -0.013745 -0.054528 -0.079288
  4H   1s         0.002145  0.041329 -0.084110  0.046833 -0.000020  0.091841
  4H   2s         0.011767  0.963969 -6.455078  4.070543 -0.286126 -3.184506
  4H   3s         0.032608-13.197462 -3.427057  3.534218 -0.506226 -3.711706
  4H   1pz        0.004807  0.050742 -0.112408  0.060194 -0.006135 -0.163972
  4H   1px       -0.003893  0.013838 -0.102898 -0.124975 -0.000558 -0.190900
  4H   1py       -0.008066  0.031100 -0.062307  0.037779 -0.015173 -0.100534
  5H   1s         0.128292 -0.037873 -0.093317  0.053957 -0.070503  0.042690
  5H   2s         2.141781  0.490175 -2.153675  1.582307 -2.076339  2.747887
  5H   3s         0.808314 -0.898198 -1.762594  0.506040 -0.836824 -2.226043
  5H   1pz       -0.010467 -0.017687 -0.046554 -0.068330 -0.006809 -0.009958
  5H   1px       -0.031246 -0.041940  0.017045  0.039042 -0.016353  0.091488
  5H   1py        0.037762 -0.011968 -0.054694  0.043416 -0.039372  0.183632
  6H   1s        -0.131797 -0.030305 -0.099932  0.064092  0.063095  0.035405
  6H   2s        -2.142532  0.576834 -2.231305  1.847646  1.969346  2.477520
  6H   3s        -0.627543 -0.849065 -1.714119  0.482650  0.521701 -2.064915
  6H   1pz       -0.026388 -0.023308 -0.078491  0.008902  0.048253  0.144473
  6H   1px        0.028326 -0.044981  0.012737  0.045041  0.020139  0.087750
  6H   1py        0.030456 -0.011829 -0.012807 -0.084349 -0.011323 -0.097827
                     30        31        32        33        34        35   
                   0.74306   0.76801   0.84291   0.93013   0.99169   0.99516
                   0.00000   0.00000   0.00000   0.00000   0.00000   0.00000
                  --------  --------  --------  --------  --------  --------
  0N   1s        -0.009784 -0.000265 -0.011140  0.008530 -0.010957  0.005232
  0N   2s        -0.020271 -0.000704 -0.014265  0.015225 -0.035185  0.016568
  0N   3s         0.078885  0.004033 -0.697599 -0.306335  0.214287 -0.105665
  0N   4s        -5.931175  0.017293  5.157360-11.756503-11.193839  5.224279
  0N   5s         3.511899  0.265081 11.894406-10.173942 -9.142825  4.383714
  0N   1pz        0.000306 -0.122630 -0.071389  0.294251 -0.039201  0.125460
  0N   1px        0.027639  0.001851  0.047373 -0.008050  0.048323 -0.025531
  0N   1py       -0.001873  0.210518 -0.040741  0.172453 -0.112930 -0.116354
  0N   2pz       -0.257717 -0.097249 -0.049917  1.597627 -0.734213  2.061221
  0N   2px        2.071454  0.044072 -1.744696  0.649601  3.088585 -1.474534
  0N   2py       -0.107598  0.224121  0.046172  0.999315 -1.909703 -1.962921
  0N   3pz       -0.521630  0.011458 -0.229665  2.231504 -1.576968  3.561611
  0N   3px        0.355020 -0.069130 -5.007638  1.084279  6.588275 -3.205194
  0N   3py       -0.233060 -0.039758 -0.068727  1.407537 -3.378953 -3.117218
  0N   1dz2       0.062462  0.026054 -0.037838  0.004104 -0.023889 -0.091797
  0N   1dxz      -0.017813 -0.016183  0.007156 -0.037150  0.009443 -0.034084
  0N   1dyz       0.041989 -0.017727 -0.017179  0.021681 -0.024859  0.080317
  0N   1dx2y2    -0.061455  0.013964  0.046820  0.023805 -0.112802 -0.005754
  0N   1dxy      -0.010998  0.025788  0.002660 -0.022209  0.031100  0.034914
  0N   2dz2       0.453415 -0.061712 -0.358668 -0.023079 -0.294420 -0.661740
  0N   2dxz      -0.324760 -0.258854  0.016834 -0.401554  0.219261 -0.748148
  0N   2dyz       0.314082  0.037641 -0.161669  0.193426 -0.285833  0.672729
  0N   2dx2y2    -0.400655 -0.046832  0.454602  0.280793 -0.786443 -0.095587
  0N   2dxy      -0.191957  0.393160 -0.011283 -0.263069  0.688747  0.758693
  0N   1f0       -0.034995 -0.013992 -0.004987 -0.013040  0.031734  0.003190
  0N   1f+1      -0.023706 -0.002156  0.029504  0.014289  0.024007  0.080047
  0N   1f-1      -0.044746  0.012152 -0.004869  0.002227  0.036514 -0.008632
  0N   1f+2       0.043666  0.031070  0.005756  0.017072 -0.015484  0.046619
  0N   1f-2       0.006374  0.001087  0.006049 -0.016125 -0.005509 -0.064955
  0N   1f+3      -0.037903  0.000538  0.032390  0.037818 -0.061381 -0.041433
  0N   1f-3      -0.022547  0.049690 -0.006372 -0.015260  0.026904  0.018143
  1C   1s        -0.010684  0.001083 -0.040625  0.033729  0.039826 -0.018591
  1C   2s        -0.036920  0.002772 -0.099274  0.093361  0.107231 -0.050111
  1C   3s         1.812923 -0.005771 -1.162251 -2.486892 -0.969576  0.435152
  1C   4s         0.930342 -0.232056-30.334522 -5.555028  8.213574 -4.332463
  1C   5s       -13.007663 -0.669910 15.239547 11.025088 53.983818-26.107076
  1C   1pz        0.137933  0.300427  0.089792 -0.109930 -0.145922  0.239824
  1C   1px       -0.351907  0.002740  0.026564  0.241619  0.047502 -0.018249
  1C   1py        0.089721 -0.490634  0.062166 -0.055323 -0.237171 -0.179024
  1C   2pz       -3.411825  1.558222  2.200465 -6.021174  1.405541 -6.356733
  1C   2px        6.375498  0.083297  0.849147  6.772644 10.544362 -4.968447
  1C   2py       -1.917823 -2.776187  1.168884 -3.797521  5.842570  6.776152
  1C   3pz        1.122090  1.442434  0.106814  0.088597 -1.351549  3.113388
  1C   3px       -0.462104 -0.043680 -3.798452  0.323757  2.581956 -1.275936
  1C   3py        0.690493 -2.367580  0.148798  0.113618 -2.928375 -2.804274
  1C   1dz2      -0.056931  0.102270 -0.054624  0.010670  0.025733  0.040896
  1C   1dxz      -0.012680 -0.056430 -0.036514 -0.005282  0.054704 -0.082564
  1C   1dyz      -0.063118 -0.074313 -0.025805  0.044176  0.041386 -0.054726
  1C   1dx2y2     0.024338  0.060679  0.059417  0.032871  0.067340 -0.000505
  1C   1dxy      -0.010529  0.088267 -0.028313 -0.006388  0.081137  0.057476
  1C   2dz2      -0.940496  1.490826 -1.004422 -0.313319 -2.228690 -0.310858
  1C   2dxz       0.513149 -0.738985 -0.599589  0.358256  0.484918 -0.149771
  1C   2dyz       0.346309 -1.031372 -0.721110  1.574982  0.210515  0.839216
  1C   2dx2y2     1.956595  0.911102  0.907851  2.493008  2.422884 -1.916649
  1C   2dxy       0.244165  1.205217 -0.381662  0.217139  0.184177 -0.240183
  1C   1f0        0.024965  0.042352  0.006632 -0.003779 -0.026071  0.065914
  1C   1f+1      -0.027316 -0.012575 -0.040491 -0.091929  0.005308  0.105580
  1C   1f-1       0.094749 -0.029705  0.063190 -0.054620 -0.051732 -0.007094
  1C   1f+2      -0.030505 -0.061766 -0.011349  0.004063  0.044383 -0.060593
  1C   1f-2      -0.047570  0.007149  0.038357 -0.040495  0.012744 -0.085670
  1C   1f+3       0.007691  0.007512 -0.084135 -0.078006 -0.124942 -0.027328
  1C   1f-3       0.003046 -0.116536  0.000342  0.013340 -0.074990 -0.069619
  2H   1s         0.060802 -0.045422  0.144329 -0.016182 -0.094942 -0.029710
  2H   2s         3.622394  7.149336  5.306403 10.887776 -0.558593 -8.082750
  2H   3s         3.011417  1.481868 -6.846556 -4.063823 -7.606286 11.681629
  2H   1pz        0.012526  0.091066  0.044263 -0.071796 -0.024842  0.004401
  2H   1px       -0.056401  0.117456  0.100928  0.182931  0.232606  0.139696
  2H   1py        0.110912 -0.135686 -0.080574 -0.206679 -0.114054  0.010263
  3H   1s         0.063435  0.046380  0.144840 -0.015514 -0.032336  0.089318
  3H   2s         3.877665 -7.038275  5.302930 10.422527  6.219074  5.839041
  3H   3s         3.076915 -1.229580 -6.665515 -3.876135-13.763187 -1.443496
  3H   1pz        0.102031  0.079281 -0.047825 -0.212868 -0.078134  0.071546
  3H   1px       -0.059308 -0.114704  0.112151  0.190959  0.042845 -0.258868
  3H   1py       -0.040221 -0.147265  0.084065  0.042711  0.027826 -0.022739
  4H   1s        -0.070366 -0.001919  0.149797  0.048016  0.028043 -0.011895
  4H   2s        -2.351301  0.183636 11.596222 -2.292786  6.021074 -2.845656
  4H   3s         5.286607  0.185763 -7.292545 -0.571746-17.416384  8.464891
  4H   1pz       -0.073147  0.098790  0.141385  0.114778  0.004735 -0.018962
  4H   1px        0.051669  0.010340  0.108296  0.154829 -0.045015  0.027357
  4H   1py       -0.035872 -0.160092  0.081928  0.069098  0.023985  0.026486
  5H   1s        -0.007797  0.028473 -0.048956  0.016105  0.033644  0.064568
  5H   2s        -2.390716  2.707341 -0.799240  4.885686 -4.131345 -1.840134
  5H   3s         0.620358 -3.360976  0.691959  0.977658 -9.150150 -1.664645
  5H   1pz        0.055446  0.016971 -0.016258  0.008394 -0.032002 -0.007386
  5H   1px        0.037938 -0.012790  0.079374 -0.135730  0.241147  0.223219
  5H   1py       -0.093622  0.199350  0.066500  0.155501 -0.063905  0.000765
  6H   1s        -0.013417 -0.030154 -0.051343  0.018450 -0.031331 -0.065487
  6H   2s        -2.412499 -2.913559 -0.842536  4.770503 -1.099554  4.510383
  6H   3s         0.441733  3.501766  0.517778  0.755875 -4.418988  8.301871
  6H   1pz       -0.044992 -0.192718  0.053879  0.133476 -0.039922  0.062535
  6H   1px        0.035626  0.009278  0.081032 -0.124035 -0.020409 -0.331911
  6H   1py        0.095719  0.087379 -0.047757 -0.070869  0.000861 -0.002447
                     36        37        38        39        40        41   
                   1.24774   1.25018   1.33069   1.34110   1.36566   1.57366
                   0.00000   0.00000   0.00000   0.00000   0.00000   0.00000
                  --------  --------  --------  --------  --------  --------
  0N   1s        -0.021980 -0.028884  0.009020 -0.014144  0.000830 -0.019282
  0N   2s        -0.064999 -0.085610  0.027737 -0.042437  0.002595 -0.066013
  0N   3s         0.622283  0.824461 -0.360270  0.479446 -0.025170  1.230852
  0N   4s        13.506229 17.307254  0.975839  4.072249 -0.250568-18.408897
  0N   5s         4.597578  6.330699-11.875470  4.181837  0.156619 -7.073445
  0N   1pz       -0.064536  0.036334 -0.021855  0.153184  0.070037  0.100397
  0N   1px       -0.210800 -0.268068 -0.087028 -0.121537  0.012575 -0.458439
  0N   1py        0.093694 -0.084646 -0.019084  0.089158 -0.129995  0.023895
  0N   2pz       -0.065098  0.325724 -0.370110 -0.481526  0.182028 -0.410559
  0N   2px       -2.118090 -2.700936 -1.486294  0.312140  0.050745  4.657303
  0N   2py        0.389824 -0.089759 -0.216531 -0.285784 -0.292004 -0.224402
  0N   3pz       -0.598442  0.111574 -0.641665  0.939310  0.727782  0.457166
  0N   3px       -1.333790 -1.796076  2.436950 -1.008956 -0.010922  1.054161
[...]
----------------------------------------------------------------------------

Number of atoms                ... 7
Central differences            ... used
Number of displacements        ... 42
Numerical increment            ... 5.000e-03 bohr
IR-spectrum generation         ... on
Raman-spectrum generation      ... on
Polarizability calculation     ... 1
Surface Crossing Hessian       ... off

The output will be reduced. Please look at the following files:
SCF program output             ... >geo_opt.lastscf
Integral program output        ... >geo_opt.lastint
Gradient program output        ... >geo_opt.lastgrad
Dipole moment program output   ... >geo_opt.lastmom
AutoCI program output          ... >geo_opt.lastautoci


         <<< Energy and Gradient at the input geometry >>>

        <<< Energy and Gradient at displaced geometries >>>
             <<<Displacing   5/coordinate 2 (+)>>>
             <<<Displacing   2/coordinate 3 (+)>>>
[file orca_tools/Tool-Properties/qcpropertyfile.cpp, line 615]: TPropertyFile2.cpp: TPropertyFile2::ReadPropertyList
Not know property

[file orca_tools/Tool-Properties/qcpropertyfile.cpp, line 615]: TPropertyFile2.cpp: TPropertyFile2::ReadPropertyList
Not know property

             <<<Displacing   6/coordinate 1 (+)>>>
[file orca_tools/Tool-Properties/qcpropertyfile.cpp, line 615]: TPropertyFile2.cpp: TPropertyFile2::ReadPropertyList
Not know property

             <<<Displacing   3/coordinate 1 (+)>>>
[file orca_tools/Tool-Properties/qcpropertyfile.cpp, line 615]: TPropertyFile2.cpp: TPropertyFile2::ReadPropertyList
Not know property

             <<<Displacing   3/coordinate 3 (+)>>>
             <<<Displacing   2/coordinate 1 (+)>>>
             <<<Displacing   4/coordinate 2 (+)>>>
             <<<Displacing   1/coordinate 1 (+)>>>
             <<<Displacing   5/coordinate 1 (+)>>>
             <<<Displacing   1/coordinate 2 (+)>>>
             <<<Displacing   4/coordinate 3 (+)>>>
             <<<Displacing   4/coordinate 1 (+)>>>
             <<<Displacing   2/coordinate 2 (+)>>>
             <<<Displacing   3/coordinate 2 (+)>>>
[file orca_tools/Tool-Properties/qcpropertyfile.cpp, line 615]: TPropertyFile2.cpp: TPropertyFile2::ReadPropertyList
Not know property

[file orca_tools/Tool-Properties/qcpropertyfile.cpp, line 615]: TPropertyFile2.cpp: TPropertyFile2::ReadPropertyList
Not know property

[file orca_tools/Tool-Properties/qcpropertyfile.cpp, line 615]: TPropertyFile2.cpp: TPropertyFile2::ReadPropertyList
Not know property

[file orca_tools/Tool-Properties/qcpropertyfile.cpp, line 615]: TPropertyFile2.cpp: TPropertyFile2::ReadPropertyList
Not know property

[file orca_tools/Tool-Properties/qcpropertyfile.cpp, line 615]: TPropertyFile2.cpp: TPropertyFile2::ReadPropertyList
Not know property

[file orca_tools/Tool-Properties/qcpropertyfile.cpp, line 615]: TPropertyFile2.cpp: TPropertyFile2::ReadPropertyList
Not know property

[file orca_tools/Tool-Properties/qcpropertyfile.cpp, line 615]: TPropertyFile2.cpp: TPropertyFile2::ReadPropertyList
Not know property

[file orca_tools/Tool-Properties/qcpropertyfile.cpp, line 615]: TPropertyFile2.cpp: TPropertyFile2::ReadPropertyList
Not know property

[file orca_tools/Tool-Properties/qcpropertyfile.cpp, line 615]: TPropertyFile2.cpp: TPropertyFile2::ReadPropertyList
Not know property

[file orca_tools/Tool-Properties/qcpropertyfile.cpp, line 615]: TPropertyFile2.cpp: TPropertyFile2::ReadPropertyList
Not know property

             <<<Displacing   5/coordinate 3 (+)>>>
[file orca_tools/Tool-Properties/qcpropertyfile.cpp, line 615]: TPropertyFile2.cpp: TPropertyFile2::ReadPropertyList
Not know property

             <<<Displacing   1/coordinate 3 (+)>>>
[file orca_tools/Tool-Properties/qcpropertyfile.cpp, line 615]: TPropertyFile2.cpp: TPropertyFile2::ReadPropertyList
Not know property

             <<<Displacing   6/coordinate 2 (+)>>>
[file orca_tools/Tool-Properties/qcpropertyfile.cpp, line 615]: TPropertyFile2.cpp: TPropertyFile2::ReadPropertyList
Not know property

             <<<Displacing   7/coordinate 1 (+)>>>
[file orca_tools/Tool-Properties/qcpropertyfile.cpp, line 615]: TPropertyFile2.cpp: TPropertyFile2::ReadPropertyList
Not know property

             <<<Displacing   6/coordinate 3 (+)>>>
[file orca_tools/Tool-Properties/qcpropertyfile.cpp, line 615]: TPropertyFile2.cpp: TPropertyFile2::ReadPropertyList
Not know property

             <<<Displacing   7/coordinate 3 (+)>>>
[file orca_tools/Tool-Properties/qcpropertyfile.cpp, line 615]: TPropertyFile2.cpp: TPropertyFile2::ReadPropertyList
Not know property

             <<<Displacing   7/coordinate 2 (+)>>>
[file orca_tools/Tool-Properties/qcpropertyfile.cpp, line 615]: TPropertyFile2.cpp: TPropertyFile2::ReadPropertyList
Not know property


HESS(0,0)<Thresh ! - Please check !
HESS(1,1)<Thresh ! - Please check !
HESS(2,2)<Thresh ! - Please check !
HESS(3,3)<Thresh ! - Please check !
HESS(4,4)<Thresh ! - Please check !
HESS(5,5)<Thresh ! - Please check !
HESS(6,6)<Thresh ! - Please check !
HESS(7,7)<Thresh ! - Please check !
HESS(8,8)<Thresh ! - Please check !
HESS(9,9)<Thresh ! - Please check !
HESS(10,10)<Thresh ! - Please check !
HESS(11,11)<Thresh ! - Please check !
HESS(12,12)<Thresh ! - Please check !
HESS(13,13)<Thresh ! - Please check !
HESS(14,14)<Thresh ! - Please check !
HESS(15,15)<Thresh ! - Please check !
HESS(16,16)<Thresh ! - Please check !
HESS(17,17)<Thresh ! - Please check !
HESS(18,18)<Thresh ! - Please check !
HESS(19,19)<Thresh ! - Please check !
HESS(20,20)<Thresh ! - Please check !

############################################################################

WARNING: It seems that the Hessian Matrix ISN'T COMPLETE!
         Please check your results VERY carefully!
         For possible error information check files geo_opt.last*.dpl*
         If necessary - restart the job with local HessianFiles.
         Modify your input options to ensure convergence and/or
         avoid other sources of problems

############################################################################



-----------------------
VIBRATIONAL FREQUENCIES
-----------------------

Scaling factor for frequencies =  1.000000000 (already applied!)

   0:         0.00 cm**-1
   1:         0.00 cm**-1
   2:         0.00 cm**-1
   3:         0.00 cm**-1
   4:         0.00 cm**-1
   5:         0.00 cm**-1
   6:        -0.00 cm**-1
   7:        -0.00 cm**-1
   8:        -0.00 cm**-1
   9:        -0.00 cm**-1
  10:        -0.00 cm**-1
  11:        -0.00 cm**-1
  12:        -0.00 cm**-1
  13:        -0.00 cm**-1
  14:        -0.00 cm**-1
  15:        -0.00 cm**-1
  16:        -0.00 cm**-1
  17:        -0.00 cm**-1
  18:        -0.00 cm**-1
  19:        -0.00 cm**-1
  20:        -0.00 cm**-1


------------
NORMAL MODES
------------

These modes are the cartesian displacements weighted by the diagonal matrix
M(i,i)=1/sqrt(m[i]) where m[i] is the mass of the displaced atom
Thus, these vectors are normalized but *not* orthogonal

                  0          1          2          3          4          5    
      0       0.000000   0.000000   0.000000   0.000000   0.000000   0.000000
      1       0.000000   0.000000   0.000000   0.000000   0.000000   0.000000
      2       0.000000   0.000000   0.000000   0.000000   0.000000   0.000000
      3       0.000000   0.000000   0.000000   0.000000   0.000000   0.000000
      4       0.000000   0.000000   0.000000   0.000000   0.000000   0.000000
      5       0.000000   0.000000   0.000000   0.000000   0.000000   0.000000
      6       0.000000   0.000000   0.000000   0.000000   0.000000   0.000000
      7       0.000000   0.000000   0.000000   0.000000   0.000000   0.000000
      8       0.000000   0.000000   0.000000   0.000000   0.000000   0.000000
      9       0.000000   0.000000   0.000000   0.000000   0.000000   0.000000
     10       0.000000   0.000000   0.000000   0.000000   0.000000   0.000000
     11       0.000000   0.000000   0.000000   0.000000   0.000000   0.000000
     12       0.000000   0.000000   0.000000   0.000000   0.000000   0.000000
     13       0.000000   0.000000   0.000000   0.000000   0.000000   0.000000
     14       0.000000   0.000000   0.000000   0.000000   0.000000   0.000000
     15       0.000000   0.000000   0.000000   0.000000   0.000000   0.000000
     16       0.000000   0.000000   0.000000   0.000000   0.000000   0.000000
     17       0.000000   0.000000   0.000000   0.000000   0.000000   0.000000
     18       0.000000   0.000000   0.000000   0.000000   0.000000   0.000000
     19       0.000000   0.000000   0.000000   0.000000   0.000000   0.000000
     20       0.000000   0.000000   0.000000   0.000000   0.000000   0.000000
                  6          7          8          9         10         11    
      0       0.445989   0.000000   0.000000   0.000000  -0.000000  -0.000000
      1       0.008117   0.146083   0.000000   0.000000   0.000000   0.000000
      2       0.013917  -0.000414   0.145383   0.000000  -0.000000  -0.000000
      3      -0.367478   0.007562   0.013048   0.183039   0.000000   0.000000
      4      -0.008307  -0.081270   0.003326  -0.003099   0.172285  -0.000000
      5      -0.014244   0.003561  -0.077075  -0.005346  -0.000320   0.172045
      6      -0.379417   0.312181   0.024289  -0.465897  -0.127953  -0.031058
      7      -0.012492   0.027045   0.006381  -0.011010  -0.515967  -0.004148
      8      -0.021444   0.114665  -0.028245  -0.019000   0.037447  -0.543485
      9      -0.379206  -0.136344   0.280855  -0.465692   0.037488  -0.125960
     10      -0.012477  -0.066613   0.060410  -0.011011  -0.551152   0.016185
     11      -0.021417  -0.048082   0.065639  -0.019002  -0.023590  -0.508211
     12      -0.345096  -0.144515  -0.250792  -0.400833   0.054018   0.093905
     13      -0.013369   0.145046  -0.048196  -0.012638  -0.488933  -0.025532
     14      -0.022885  -0.048308   0.088846  -0.021793  -0.024473  -0.517571
     15      -0.357423  -0.268110   0.014656  -0.424327   0.094699  -0.012711
     16       0.012277  -0.627336  -0.003942   0.035803  -0.264745   0.016227
     17       0.021070  -0.102735  -0.570801   0.061772  -0.021006  -0.223994
     18      -0.357499   0.146680  -0.224477  -0.424290  -0.058252   0.075823
     19       0.012248  -0.539691  -0.054283   0.035777  -0.232100  -0.002732
     20       0.021021   0.047784  -0.657254   0.061728   0.035433  -0.256771
                 12         13         14         15         16         17    
      0       0.000000  -0.000000  -0.000000   0.000000   0.000000  -0.000000
      1      -0.000000   0.000000   0.000000   0.000000  -0.000000   0.000000
      2      -0.000000  -0.000000  -0.000000   0.000000  -0.000000  -0.000000
      3      -0.000000  -0.000000   0.000000  -0.000000   0.000000  -0.000000
      4       0.000000  -0.000000   0.000000   0.000000   0.000000   0.000000
      5      -0.000000  -0.000000   0.000000  -0.000000   0.000000   0.000000
      6       0.804378   0.000000   0.000000  -0.000000   0.000000  -0.000000
      7      -0.138835   0.831836  -0.000000  -0.000000   0.000000  -0.000000
      8      -0.063757   0.002240   0.677369  -0.000000   0.000000  -0.000000
      9      -0.214216   0.005254  -0.142777   0.762217   0.000000  -0.000000
     10      -0.110899  -0.381319   0.306387   0.044018   0.512382   0.000000
     11      -0.015186  -0.016784  -0.273885  -0.215849  -0.033454   0.731304
     12      -0.155612   0.029704   0.103826  -0.188724   0.033072   0.092128
     13      -0.180004  -0.370464  -0.308316  -0.026490  -0.367181  -0.041890
     14      -0.017522  -0.017868  -0.282831  -0.231213  -0.032955  -0.656682
     15      -0.113516   0.080857   0.006817  -0.370607   0.184699  -0.132002
     16       0.227988  -0.045057   0.141906   0.007536  -0.324728   0.009423
     17       0.070713   0.007417   0.182551   0.251721  -0.401493  -0.057060
     18      -0.321035  -0.115816   0.032134  -0.202886  -0.217771   0.039874
     19       0.201749  -0.034995  -0.139977  -0.025064   0.179527   0.032467
     20       0.025752   0.024995  -0.303204   0.195340   0.467901  -0.017562
                  18         19         20    
      0       0.000000   0.000000   0.000000
      1       0.000000  -0.000000  -0.000000
      2      -0.000000  -0.000000   0.000000
      3      -0.000000  -0.000000   0.000000
      4       0.000000  -0.000000   0.000000
      5      -0.000000   0.000000  -0.000000
      6       0.000000   0.000000  -0.000000
      7       0.000000   0.000000   0.000000
      8       0.000000  -0.000000   0.000000
      9       0.000000   0.000000   0.000000
     10      -0.000000  -0.000000  -0.000000
     11      -0.000000  -0.000000   0.000000
     12       0.793386   0.000000   0.000000
     13       0.096239   0.363572   0.000000
     14       0.167160  -0.210921  -0.000000
     15      -0.396371   0.589056   0.000434
     16      -0.048080  -0.109593  -0.611580
     17      -0.083512   0.229141   0.354922
     18      -0.397015  -0.589056  -0.000434
     19      -0.048159  -0.253980   0.611580
     20      -0.083648  -0.018219  -0.354922


-----------
IR SPECTRUM  
-----------

 Mode    freq (cm**-1)   T**2         TX         TY         TZ
-------------------------------------------------------------------

--------------
RAMAN SPECTRUM  
--------------

 Mode    freq (cm**-1)   Activity   Depolarization
-------------------------------------------------------------------

The first frequency considered to be a vibration is 0
The total number of vibrations considered is 21


--------------------------
THERMOCHEMISTRY AT 298.15K
--------------------------

Temperature         ... 298.15 K
Pressure            ... 1.00 atm
Total Mass          ... 31.06 AMU

Throughout the following assumptions are being made:
  (1) The electronic state is orbitally nondegenerate
  (2) There are no thermally accessible electronically excited states
  (3) Hindered rotations indicated by low frequency modes are not
      treated as such but are treated as vibrations and this may
      cause some error
  (4) All equations used are the standard statistical mechanics
      equations for an ideal gas
  (5) All vibrations are strictly harmonic

freq.       0.00  E(vib)   ...       -nan 
freq.       0.00  E(vib)   ...       -nan 
freq.       0.00  E(vib)   ...       -nan 
freq.       0.00  E(vib)   ...       -nan 
freq.       0.00  E(vib)   ...       -nan 
freq.       0.00  E(vib)   ...       -nan 
freq.      -0.00  E(vib)   ...       -nan 
freq.      -0.00  E(vib)   ...       -nan 
freq.      -0.00  E(vib)   ...       -nan 
freq.      -0.00  E(vib)   ...       -nan 
freq.      -0.00  E(vib)   ...       -nan 
freq.      -0.00  E(vib)   ...       -nan 
freq.      -0.00  E(vib)   ...       -nan 
freq.      -0.00  E(vib)   ...       -nan 
freq.      -0.00  E(vib)   ...       -nan 
freq.      -0.00  E(vib)   ...       -nan 
freq.      -0.00  E(vib)   ...       -nan 
freq.      -0.00  E(vib)   ...       -nan 
freq.      -0.00  E(vib)   ...       -nan 
freq.      -0.00  E(vib)   ...       -nan 
freq.      -0.00  E(vib)   ...       -nan 

------------
INNER ENERGY
------------

The inner energy is: U= E(el) + E(ZPE) + E(vib) + E(rot) + E(trans)
    E(el)   - is the total energy from the electronic structure calculation
              = E(kin-el) + E(nuc-el) + E(el-el) + E(nuc-nuc)
    E(ZPE)  - the the zero temperature vibrational energy from the frequency calculation
    E(vib)  - the the finite temperature correction to E(ZPE) due to population
              of excited vibrational states
    E(rot)  - is the rotational thermal energy
    E(trans)- is the translational thermal energy

Summary of contributions to the inner energy U:
Electronic energy                ...    -95.83550449 Eh
Zero point energy                ...      0.00000000 Eh       0.00 kcal/mol
Thermal vibrational correction   ...            -nan Eh       -nan kcal/mol
Thermal rotational correction    ...      0.00141627 Eh       0.89 kcal/mol
Thermal translational correction ...      0.00141627 Eh       0.89 kcal/mol
-----------------------------------------------------------------------
Total thermal energy                            -nan Eh


Summary of corrections to the electronic energy:
(perhaps to be used in another calculation)
Total thermal correction                        -nan Eh       -nan kcal/mol
Non-thermal (ZPE) correction              0.00000000 Eh       0.00 kcal/mol
-----------------------------------------------------------------------
Total correction                                -nan Eh       -nan kcal/mol


--------
ENTHALPY
--------

The enthalpy is H = U + kB*T
                kB is Boltzmann's constant
Total free energy                 ...            -nan Eh 
Thermal Enthalpy correction       ...      0.00094421 Eh       0.59 kcal/mol
-----------------------------------------------------------------------
Total Enthalpy                    ...            -nan Eh


Note: Only C1 symmetry has been detected, increase convergence thresholds 
      if your molecule has a higher symmetry. Symmetry factor of 1.0 is   
      used for the rotational entropy correction. 
 

Note: Rotational entropy computed according to Herzberg 
Infrared and Raman Spectra, Chapter V,1, Van Nostrand Reinhold, 1945 
Point Group:  C1, Symmetry Number:   1  
Rotational constants in cm-1:     3.470865     0.759977     0.729761 

Vibrational entropy computed according to the QRRHO of S. Grimme
Chem.Eur.J. 2012 18 9955


-------
ENTROPY
-------

The entropy contributions are T*S = T*(S(el)+S(vib)+S(rot)+S(trans))
     S(el)   - electronic entropy
     S(vib)  - vibrational entropy
     S(rot)  - rotational entropy
     S(trans)- translational entropy
The entropies will be listed as mutliplied by the temperature to get
units of energy

Electronic entropy                ...      0.00000000 Eh      0.00 kcal/mol
Vibrational entropy               ...            -nan Eh      -nan kcal/mol
Rotational entropy                ...      0.00920164 Eh      5.77 kcal/mol
Translational entropy             ...      0.01721518 Eh     10.80 kcal/mol
-----------------------------------------------------------------------
Final entropy term                ...            -nan Eh      -nan kcal/mol

In case the symmetry of your molecule has not been determined correctly
or in case you have a reason to use a different symmetry number we print 
out the resulting rotational entropy values for sn=1,12 :
 --------------------------------------------------------
|  sn= 1 | S(rot)=       0.00920164 Eh      5.77 kcal/mol|
|  sn= 2 | S(rot)=       0.00854718 Eh      5.36 kcal/mol|
|  sn= 3 | S(rot)=       0.00816435 Eh      5.12 kcal/mol|
|  sn= 4 | S(rot)=       0.00789273 Eh      4.95 kcal/mol|
|  sn= 5 | S(rot)=       0.00768204 Eh      4.82 kcal/mol|
|  sn= 6 | S(rot)=       0.00750989 Eh      4.71 kcal/mol|
|  sn= 7 | S(rot)=       0.00736435 Eh      4.62 kcal/mol|
|  sn= 8 | S(rot)=       0.00723827 Eh      4.54 kcal/mol|
|  sn= 9 | S(rot)=       0.00712706 Eh      4.47 kcal/mol|
|  sn=10 | S(rot)=       0.00702758 Eh      4.41 kcal/mol|
|  sn=11 | S(rot)=       0.00693759 Eh      4.35 kcal/mol|
|  sn=12 | S(rot)=       0.00685544 Eh      4.30 kcal/mol|
 --------------------------------------------------------


-------------------
GIBBS FREE ENERGY
-------------------

The Gibbs free energy is G = H - T*S

Total enthalpy                    ...            -nan Eh 
Total entropy correction          ...             nan Eh       nan kcal/mol
-----------------------------------------------------------------------
Final Gibbs free energy         ...            -nan Eh

For completeness - the Gibbs free energy minus the electronic energy
G-E(el)                           ...            -nan Eh      -nan kcal/mol

[file orca_tools/Tool-Properties/qcpropertyfile.cpp, line 615]: TPropertyFile2.cpp: TPropertyFile2::ReadPropertyList
Not know property

