
                                 *****************
                                 * O   R   C   A *
                                 *****************

           --- An Ab Initio, DFT and Semiempirical electronic structure package ---

                  #######################################################
                  #                        -***-                        #
                  #  Department of molecular theory and spectroscopy    #
                  #              Directorship: Frank Neese              #
                  # Max Planck Institute for Chemical Energy Conversion #
                  #                  D-45470 Muelheim/Ruhr              #
                  #                       Germany                       #
                  #                                                     #
                  #                  All rights reserved                #
                  #                        -***-                        #
                  #######################################################


                         Program Version 3.0.2 -  RELEASE  -


 With contributions from (in alphabetic order):
   Ute Becker             : Parallelization
   Dmytro Bykov           : SCF Hessian
   Dmitry Ganyushin       : Spin-Orbit,Spin-Spin,Magnetic field MRCI
   Andreas Hansen         : Spin unrestricted coupled pair/coupled cluster methods
   Dimitrios Liakos       : Extrapolation schemes; parallel MDCI
   Robert Izsak           : Overlap fitted RIJCOSX, COSX-SCS-MP3
   Christian Kollmar      : KDIIS, OOCD, Brueckner-CCSD(T), CCSD density
   Simone Kossmann        : Meta GGA functionals, TD-DFT gradient, OOMP2, MP2 Hessian
   Taras Petrenko         : DFT Hessian,TD-DFT gradient, ASA and ECA modules, normal mode analysis, Resonance Raman, ABS, FL, XAS/XES, NRVS
   Christoph Reimann      : Effective Core Potentials
   Michael Roemelt        : Restricted open shell CIS
   Christoph Riplinger    : Improved optimizer, TS searches, QM/MM, DLPNO-CCSD
   Barbara Sandhoefer     : DKH picture change effects
   Igor Schapiro          : Molecular dynamics
   Kantharuban Sivalingam : CASSCF convergence, NEVPT2
   Boris Wezisla          : Elementary symmetry handling
   Frank Wennmohs         : Technical directorship


 We gratefully acknowledge several colleagues who have allowed us to
 interface, adapt or use parts of their codes:
   Stefan Grimme, W. Hujo, H. Kruse, T. Risthaus : VdW corrections, initial TS optimization,
                                                   DFT functionals, gCP
   Ed Valeev                                     : LibInt (2-el integral package), F12 methods
   Garnet Chan, S. Sharma, R. Olivares           : DMRG
   Ulf Ekstrom                                   : XCFun DFT Library
   Mihaly Kallay                                 : mrcc  (arbitrary order and MRCC methods)
   Andreas Klamt, Michael Diedenhofen            : otool_cosmo (COSMO solvation model)
   Frank Weinhold                                : gennbo (NPA and NBO analysis)
   Christopher J. Cramer and Donald G. Truhlar   : smd solvation model


 Your calculation uses the libint2 library for the computation of 2-el integrals
 For citations please refer to: http://libint.valeyev.net

 This ORCA versions uses:
   CBLAS   interface :  Fast vector & matrix operations
   LAPACKE interface :  Fast linear algebra routines
   SCALAPACK package :  Parallel linear algebra routines


Your calculation utilizes the basis: Ahlrichs-QZV
Cite in your paper:

================================================================================
                                        WARNINGS
                       Please study these warnings very carefully!
================================================================================
Now building the actual basis set


INFO   : the flag for use of LIBINT has been found!

================================================================================
                                       INPUT FILE
================================================================================
NAME = 6_LiH_opt_QZ.inp
|  1> ! RHF QZVP LARGEPRINT PRINTBASIS PRINTGAP ALLPOP
|  2> 
|  3> * xyz 0 1 
|  4> Li      -2.5161668455      1.6193821313      0.0413723134                 
|  5> H       -0.8794522088      1.5810565855      0.0021921869                 
|  6> *
|  7> 
|  8>                          ****END OF INPUT****
================================================================================

                       ****************************
                       * Single Point Calculation *
                       ****************************

---------------------------------
CARTESIAN COORDINATES (ANGSTROEM)
---------------------------------
  Li    -2.516167    1.619382    0.041372
  H     -0.879452    1.581057    0.002192

----------------------------
CARTESIAN COORDINATES (A.U.)
----------------------------
  NO LB      ZA    FRAG    MASS        X           Y           Z
   0 Li    3.0000    0     6.941         -4.754866245247547          3.060188734322706          0.078182341852760
   1 H     1.0000    0     1.008         -1.661923822504129          2.987763948827650          0.004142632875370

--------------------------------
INTERNAL COORDINATES (ANGSTROEM)
--------------------------------
 Li     0   0   0   0.000000     0.000     0.000
 H      1   0   0   1.637632     0.000     0.000

---------------------------
INTERNAL COORDINATES (A.U.)
---------------------------
 Li     0   0   0   0.000000     0.000     0.000
 H      1   0   0   3.094676     0.000     0.000

---------------------
BASIS SET INFORMATION
---------------------
There are 2 groups of distinct atoms

 Group   1 Type Li  : 15s6p2d1f contracted to 6s4p2d1f pattern {921111/3111/11/1}
 Group   2 Type H   : 7s3p2d1f contracted to 4s3p2d1f pattern {4111/111/11/1}

Atom   0Li   basis set group =>   1
Atom   1H    basis set group =>   2

-------------------------
BASIS SET IN INPUT FORMAT
-------------------------

 # Basis set for element : H 
 NewGTO H 
 S 4 
   1     190.6916900000      0.0053426372
   2      28.6055320000      0.0412523382
   3       6.5095943000      0.2109935257
   4       1.8412455000      0.8121285458
 S 1 
   1       0.5985372500      1.0000000000
 S 1 
   1       0.2139762400      1.0000000000
 S 1 
   1       0.0803162860      1.0000000000
 P 1 
   1       2.2920000000      1.0000000000
 P 1 
   1       0.8380000000      1.0000000000
 P 1 
   1       0.2920000000      1.0000000000
 D 1 
   1       2.0620000000      1.0000000000
 D 1 
   1       0.6620000000      1.0000000000
 F 1 
   1       1.3970000000      1.0000000000
  end;

 # Basis set for element : Li
 NewGTO Li
 S 9 
   1   14853.9770850000      0.0000487614
   2    2225.2236477000      0.0003794302
   3     504.8873900800      0.0019999886
   4     142.4584754800      0.0083885997
   5      46.3155995800      0.0295684942
   6      16.6553354740      0.0875309202
   7       6.4331186199      0.2086484272
   8       2.6027043858      0.3728100628
   9       1.0897245405      0.4224146141
 S 2 
   1       4.4236595971      0.1254565260
   2       1.2356394990      0.9023418921
 S 1 
   1       0.4606747060      1.0000000000
 S 1 
   1       0.0966171670      1.0000000000
 S 1 
   1       0.0459154523      1.0000000000
 S 1 
   1       0.0211400487      1.0000000000
 P 3 
   1       3.2605109206      0.0355841641
   2       0.6500304312      0.1958630956
   3       0.1694167107      0.8638923872
 P 1 
   1       0.0557323438      1.0000000000
 P 1 
   1       0.0204899592      1.0000000000
 P 1 
   1       3.3270000000      1.0000000000
 D 1 
   1       0.2300000000      1.0000000000
 D 1 
   1       0.0757000000      1.0000000000
 F 1 
   1       0.1350000000      1.0000000000
  end;

------------------------------------------------------------------------------
                           ORCA GTO INTEGRAL CALCULATION
------------------------------------------------------------------------------

                         BASIS SET STATISTICS AND STARTUP INFO

 # of primitive gaussian shells          ...   37
 # of primitive gaussian functions       ...   83
 # of contracted shell                   ...   23
 # of contracted basis functions         ...   65
 Highest angular momentum                ...    3
 Maximum contraction depth               ...    9
 Integral package used                   ... LIBINT
 Integral threshhold            Thresh   ...  1.000e-10
 Primitive cut-off              TCut     ...  1.000e-11


                              INTEGRAL EVALUATION

 One electron integrals                  ... done
 Pre-screening matrix                    ... done
 Shell pair data                         ... done (   0.000 sec)

-------------------------------------------------------------------------------
                                 ORCA SCF
-------------------------------------------------------------------------------

------------
SCF SETTINGS
------------
Hamiltonian:
 Ab initio Hamiltonian  Method          .... Hartree-Fock(GTOs)


General Settings:
 Integral files         IntName         .... 6_LiH_opt_QZ
 Hartree-Fock type      HFTyp           .... RHF
 Total Charge           Charge          ....    0
 Multiplicity           Mult            ....    1
 Number of Electrons    NEL             ....    4
 Basis Dimension        Dim             ....   65
 Nuclear Repulsion      ENuc            ....      0.9694067875 Eh

Convergence Acceleration:
 DIIS                   CNVDIIS         .... on
   Start iteration      DIISMaxIt       ....    12
   Startup error        DIISStart       ....  0.200000
   # of expansion vecs  DIISMaxEq       ....     5
   Bias factor          DIISBfac        ....   1.050
   Max. coefficient     DIISMaxC        ....  10.000
 Newton-Raphson         CNVNR           .... off
 SOSCF                  CNVSOSCF        .... on
   Start iteration      SOSCFMaxIt      ....   150
   Startup grad/error   SOSCFStart      ....  0.003300
 Level Shifting         CNVShift        .... on
   Level shift para.    LevelShift      ....    0.2500
   Turn off err/grad.   ShiftErr        ....    0.0010
 Zerner damping         CNVZerner       .... off
 Static damping         CNVDamp         .... on
   Fraction old density DampFac         ....    0.7000
   Max. Damping (<1)    DampMax         ....    0.9800
   Min. Damping (>=0)   DampMin         ....    0.0000
   Turn off err/grad.   DampErr         ....    0.1000
 Fernandez-Rico         CNVRico         .... off

SCF Procedure:
 Maximum # iterations   MaxIter         ....   125
 SCF integral mode      SCFMode         .... Direct
   Integral package                     .... LIBINT
 Reset frequeny         DirectResetFreq ....    20
 Integral Threshold     Thresh          ....  1.000e-10 Eh
 Primitive CutOff       TCut            ....  1.000e-11 Eh

Convergence Tolerance:
 Convergence Check Mode ConvCheckMode   .... Total+1el-Energy
 Energy Change          TolE            ....  1.000e-06 Eh
 1-El. energy change                    ....  1.000e-03 Eh
 Orbital Gradient       TolG            ....  5.000e-05
 Orbital Rotation angle TolX            ....  5.000e-05
 DIIS Error             TolErr          ....  1.000e-06


Diagonalization of the overlap matrix:
Smallest eigenvalue                        ... 3.372e-03
Time for diagonalization                   ...    0.005 sec
Threshold for overlap eigenvalues          ... 1.000e-08
Number of eigenvalues below threshold      ... 0
Time for construction of square roots      ...    0.002 sec
Total time needed                          ...    0.007 sec

-------------------
DFT GRID GENERATION
-------------------

General Integration Accuracy     IntAcc      ...  4.340
Radial Grid Type                 RadialGrid  ... Gauss-Chebyshev
Angular Grid (max. acc.)         AngularGrid ... Lebedev-110
Angular grid pruning method      GridPruning ... 3 (G Style)
Weight generation scheme         WeightScheme... Becke
Basis function cutoff            BFCut       ...    1.0000e-10
Integration weight cutoff        WCut        ...    1.0000e-14
Grids for H and He will be reduced by one unit

# of grid points (after initial pruning)     ...   2434 (   0.0 sec)
# of grid points (after weights+screening)   ...   2412 (   0.0 sec)
nearest neighbour list constructed           ...    0.0 sec
Grid point re-assignment to atoms done       ...    0.0 sec
Grid point division into batches done        ...    0.0 sec
Reduced shell lists constructed in    0.0 sec

Total number of grid points                  ...     2412
Total number of batches                      ...       39
Average number of points per batch           ...       61
Average number of grid points per atom       ...     1206
Average number of shells per batch           ...    19.02 (82.72%)
Average number of basis functions per batch  ...    53.48 (82.27%)
Average number of large shells per batch     ...    17.88 (93.96%)
Average number of large basis fcns per batch ...    50.58 (94.58%)
Maximum spatial batch extension              ...  29.72, 51.31, 51.31 au
Average spatial batch extension              ...   9.37, 13.21, 13.19 au

Time for grid setup =    0.021 sec

------------------------------
INITIAL GUESS: MODEL POTENTIAL
------------------------------
Loading Hartree-Fock densities                     ... done
Calculating cut-offs                               ... done
Setting up the integral package                    ... done
Initializing the effective Hamiltonian             ... done
Starting the Coulomb interaction                   ... done (   0.0 sec)
Reading the grid                                   ... done
Mapping shells                                     ... done
Starting the XC term evaluation                    ... done (   0.0 sec)
Transforming the Hamiltonian                       ... done (   0.0 sec)
Diagonalizing the Hamiltonian                      ... done (   0.0 sec)
Back transforming the eigenvectors                 ... done (   0.0 sec)
Now organizing SCF variables                       ... done
                      ------------------
                      INITIAL GUESS DONE (   0.2 sec)
                      ------------------
----------------------
INITIAL GUESS ORBITALS
----------------------
                      0         1         2         3         4         5   
                  -1.85345  -0.29119  -0.08369  -0.04812  -0.04811   0.00406
                   2.00000   2.00000   0.00000   0.00000   0.00000   0.00000
                  --------  --------  --------  --------  --------  --------
  0Li  1s         0.859190  0.097022  0.123834 -0.000000  0.000080  0.042449
  0Li  2s        -0.016320  0.022979  0.030628 -0.000000  0.000048  0.017388
  0Li  3s         0.203301  0.049064  0.080151  0.000001 -0.000140  0.014094
  0Li  4s         0.022946 -0.159840 -0.178316 -0.000002  0.000474  0.043313
  0Li  5s        -0.009683 -0.079187 -0.575421 -0.000034  0.007030 -1.054128
  0Li  6s         0.003037 -0.010667 -0.325963 -0.000019  0.003884  1.352140
  0Li  1pz       -0.000110  0.003726 -0.004128 -0.184315 -0.190182  0.001835
  0Li  1px        0.004442 -0.155517  0.168938  0.000043 -0.008955 -0.017653
  0Li  1py       -0.000108  0.003645 -0.004037  0.190238 -0.184259  0.001795
  0Li  2pz       -0.000036  0.001952 -0.004828 -0.354026 -0.365323  0.005007
  0Li  2px        0.001606 -0.080805  0.163533  0.000039 -0.008218 -0.089849
  0Li  2py       -0.000035  0.001909 -0.004722  0.365405 -0.353948  0.004898
  0Li  3pz        0.000000  0.000084 -0.002242 -0.257691 -0.265899 -0.022351
  0Li  3px       -0.000049 -0.000232  0.105494  0.000054 -0.011373  0.848955
  0Li  3py        0.000000  0.000082 -0.002193  0.265972 -0.257618 -0.021863
  0Li  4pz       -0.000001  0.000040 -0.000026 -0.001537 -0.001584  0.000002
  0Li  4px        0.000048 -0.001874  0.000851  0.000000 -0.000095  0.000096
  0Li  4py       -0.000001  0.000039 -0.000025  0.001586 -0.001534  0.000002
  0Li  1dz2      -0.001002  0.016447 -0.009910  0.000175  0.000249  0.007614
  0Li  1dxz      -0.000090  0.001382 -0.000862 -0.004248 -0.004405  0.000993
  0Li  1dyz       0.000002 -0.000048  0.000012 -0.000006  0.000236 -0.000016
  0Li  1dx2y2     0.001736 -0.028489  0.017166  0.000104 -0.000421 -0.013189
  0Li  1dxy      -0.000088  0.001352 -0.000844  0.004385 -0.004268  0.000971
  0Li  2dz2      -0.000681  0.015807 -0.005342  0.001459 -0.000952  0.062992
  0Li  2dxz      -0.000052  0.001558 -0.000730 -0.043712 -0.045129  0.003339
  0Li  2dyz       0.000001 -0.000028  0.000040 -0.000048  0.001781 -0.000124
  0Li  2dx2y2     0.001179 -0.027380  0.009255  0.000832  0.001739 -0.109112
  0Li  2dxy      -0.000051  0.001524 -0.000714  0.045118 -0.043725  0.003266
  0Li  1f0        0.000046 -0.000697  0.000363  0.008063  0.008336 -0.000618
  0Li  1f+1      -0.000780  0.009140 -0.005489  0.000564 -0.000155  0.016177
  0Li  1f-1       0.000019 -0.000289  0.000207 -0.004050  0.003915 -0.000257
  0Li  1f+2      -0.000060  0.000913 -0.000548 -0.011209 -0.011568  0.000811
  0Li  1f-2       0.000003 -0.000059  0.000036 -0.000023  0.000865 -0.000053
  0Li  1f+3      -0.001007  0.011802 -0.007088 -0.000436 -0.000232  0.020887
  0Li  1f-3       0.000071 -0.001086  0.000609 -0.013665  0.013249 -0.000964
  1H   1s         0.000742 -0.117453  0.025388  0.000000 -0.000036 -0.029249
  1H   2s         0.002529 -0.253445  0.067807  0.000000 -0.000022 -0.088709
  1H   3s        -0.003899 -0.328502  0.054136  0.000014 -0.003011 -0.061981
  1H   4s        -0.002239 -0.140017  0.195047  0.000056 -0.011763 -0.043953
  1H   1pz       -0.000009 -0.000019  0.000016 -0.001077 -0.001139 -0.000021
  1H   1px        0.000128 -0.000901  0.000882  0.000001 -0.000095  0.001025
  1H   1py       -0.000009 -0.000018  0.000015  0.001112 -0.001104 -0.000020
  1H   2pz        0.000049  0.000056 -0.000093 -0.004689 -0.004768 -0.000043
  1H   2px       -0.001523  0.012740 -0.003046  0.000000 -0.000124  0.002608
  1H   2py        0.000048  0.000054 -0.000091  0.004838 -0.004618 -0.000043
  1H   3pz       -0.000017 -0.000589 -0.000206 -0.020843 -0.021576 -0.000255
  1H   3px        0.000604 -0.003901  0.019006  0.000003 -0.000630  0.025468
  1H   3py       -0.000017 -0.000577 -0.000201  0.021511 -0.020903 -0.000249
  1H   1dz2      -0.000007  0.000032 -0.000058 -0.000058  0.000007 -0.000169
  1H   1dxz       0.000004 -0.000176  0.000023  0.000186  0.000211 -0.000058
  1H   1dyz       0.000002 -0.000074  0.000016 -0.000003  0.000123 -0.000022
  1H   1dx2y2     0.000013 -0.000053  0.000101 -0.000034 -0.000015  0.000292
  1H   1dxy       0.000004 -0.000173  0.000022 -0.000193  0.000206 -0.000057
  1H   2dz2      -0.000413  0.001419 -0.000396  0.000010 -0.000085  0.001525
  1H   2dxz      -0.000047  0.000403 -0.000078  0.001173  0.001172  0.000185
  1H   2dyz      -0.000001  0.000112 -0.000021  0.000007 -0.000255  0.000033
  1H   2dx2y2     0.000716 -0.002461  0.000686  0.000005  0.000148 -0.002641
  1H   2dxy      -0.000046  0.000395 -0.000077 -0.001208  0.001133  0.000181
  1H   1f0       -0.000008 -0.000292  0.000044  0.000447  0.000460 -0.000081
  1H   1f+1       0.000171 -0.000176  0.000186  0.000127  0.000029 -0.000059
  1H   1f-1      -0.000019  0.000369 -0.000074  0.000349 -0.000325  0.000106
  1H   1f+2       0.000030 -0.000251  0.000062  0.000082  0.000069 -0.000074
  1H   1f-2      -0.000003  0.000024 -0.000012  0.000002 -0.000082  0.000011
  1H   1f+3       0.000220 -0.000225  0.000239 -0.000099  0.000031 -0.000075
  1H   1f-3      -0.000024 -0.000076 -0.000003 -0.000314  0.000312 -0.000019
                      6         7         8         9        10        11   
                   0.02596   0.04109   0.04109   0.05986   0.09978   0.09982
                   0.00000   0.00000   0.00000   0.00000   0.00000   0.00000
                  --------  --------  --------  --------  --------  --------
  0Li  1s         0.091941  0.000120 -0.000000  0.025645 -0.000002  0.000371
  0Li  2s         0.040472 -0.000011  0.000000  0.005012  0.000000 -0.000115
  0Li  3s         0.019654  0.000313 -0.000001  0.033782 -0.000002  0.000473
  0Li  4s         0.297785 -0.000577  0.000003 -0.109147  0.000057 -0.012970
  0Li  5s        -2.624551 -0.029521  0.000119 -2.213201 -0.000356  0.082163
  0Li  6s         1.974285  0.005164 -0.000021  0.221829  0.000102 -0.023349
  0Li  1pz       -0.001976 -0.161917 -0.157262  0.009066  0.045030  0.046207
  0Li  1px        0.091192 -0.010423  0.000042 -0.280283 -0.000005  0.001310
  0Li  1py       -0.001933 -0.157119  0.162062  0.008868 -0.046433  0.044810
  0Li  2pz       -0.000762 -0.696125 -0.676574  0.063280  0.097963  0.099659
  0Li  2px        0.003733 -0.061448  0.000247 -2.394908 -0.000254  0.058662
  0Li  2py       -0.000746 -0.675494  0.697222  0.061900 -0.101002  0.096633
  0Li  3pz        0.019433  0.963676  0.935921 -0.025420 -0.081015 -0.083131
  0Li  3px       -0.757355  0.055049 -0.000221  0.717002  0.000066 -0.015241
  0Li  3py        0.019009  0.935119 -0.964489 -0.024865  0.083537 -0.080614
  0Li  4pz        0.000016 -0.002261 -0.002195  0.000003  0.000318  0.000331
  0Li  4px       -0.000833 -0.000085  0.000000  0.000266  0.000000 -0.000019
  0Li  4py        0.000015 -0.002194  0.002262  0.000003 -0.000328  0.000321
  0Li  1dz2      -0.019813  0.000459  0.000456  0.005766 -0.001674 -0.001485
  0Li  1dxz      -0.001619 -0.006745 -0.006534  0.000483  0.032966  0.033903
  0Li  1dyz       0.000028  0.000451 -0.000012 -0.000063  0.000043 -0.001644
  0Li  1dx2y2     0.034318 -0.000768  0.000267 -0.009991 -0.000981  0.002471
  0Li  1dxy      -0.001583 -0.006546  0.006735  0.000472 -0.033993  0.032876
  0Li  2dz2      -0.007781  0.005589  0.001398  0.072437  0.029765  0.017348
  0Li  2dxz      -0.001570 -0.071823 -0.070204  0.005274 -0.702948 -0.724693
  0Li  2dyz       0.000063  0.002363 -0.000062  0.000141 -0.000851  0.032231
  0Li  2dx2y2     0.013482 -0.009595  0.000859 -0.125451  0.017350 -0.028232
  0Li  2dxy      -0.001536 -0.069692  0.072344  0.005159  0.724862 -0.702789
  0Li  1f0        0.000645  0.011114  0.010855 -0.002181  0.031571  0.032667
  0Li  1f+1      -0.009167  0.001757  0.000679  0.036119  0.003033  0.000182
  0Li  1f-1       0.000325  0.004512 -0.004716 -0.000704 -0.015264  0.014764
  0Li  1f+2      -0.000920 -0.014492 -0.014198  0.002600 -0.043181 -0.044564
  0Li  1f-2       0.000052  0.001073 -0.000028 -0.000082 -0.000102  0.003847
  0Li  1f+3      -0.011837  0.002232 -0.000540  0.046631 -0.002350  0.000069
  0Li  1f-3       0.001050  0.017138 -0.017803 -0.003243 -0.053008  0.051513
  1H   1s         0.015887  0.000095 -0.000000  0.018748  0.000001 -0.000262
  1H   2s         0.072108  0.000635 -0.000002  0.106521 -0.000002  0.000567
  1H   3s        -0.079952 -0.000621  0.000002 -0.044055  0.000054 -0.012529
  1H   4s         0.639507  0.035870 -0.000145  2.820798  0.000261 -0.060342
  1H   1pz        0.000012 -0.000081 -0.000058  0.000096  0.000534  0.000515
  1H   1px        0.001447 -0.000075  0.000000 -0.000602 -0.000000  0.000030
  1H   1py        0.000012 -0.000079  0.000060  0.000094 -0.000550  0.000499
  1H   2pz       -0.000132 -0.007737 -0.007554 -0.000795 -0.017476 -0.017927
  1H   2px       -0.002188  0.000079 -0.000001  0.024836  0.000004 -0.000944
  1H   2py       -0.000129 -0.007506  0.007784 -0.000778  0.018020 -0.017384
  1H   3pz       -0.000807 -0.005242 -0.005079  0.001180  0.001551  0.001450
  1H   3px        0.046916 -0.001056  0.000005 -0.030222 -0.000008  0.001894
  1H   3py       -0.000789 -0.005085  0.005233  0.001155 -0.001602  0.001409
  1H   1dz2      -0.000283  0.000009 -0.000050  0.000540 -0.000039  0.000028
  1H   1dxz      -0.000015  0.000155  0.000134  0.000030  0.000018  0.000042
  1H   1dyz       0.000009  0.000106 -0.000003  0.000002 -0.000004  0.000142
  1H   1dx2y2     0.000489 -0.000019 -0.000029 -0.000934 -0.000022 -0.000050
  1H   1dxy      -0.000015  0.000152 -0.000139  0.000029 -0.000020  0.000043
  1H   2dz2       0.001349 -0.000113 -0.000012 -0.002609 -0.000017 -0.000093
  1H   2dxz       0.000104  0.001547  0.001537 -0.000190  0.000640  0.000615
  1H   2dyz      -0.000012 -0.000243  0.000006  0.000009  0.000006 -0.000232
  1H   2dx2y2    -0.002338  0.000195 -0.000008  0.004517 -0.000011  0.000160
  1H   2dxy       0.000102  0.001499 -0.001582 -0.000186 -0.000657  0.000594
  1H   1f0        0.000018  0.000448  0.000436 -0.000016  0.000756  0.000778
  1H   1f+1       0.000151  0.000034  0.000115  0.000204  0.000173  0.000064
  1H   1f-1      -0.000036 -0.000261  0.000280  0.000003  0.000272 -0.000251
  1H   1f+2       0.000033 -0.000006  0.000007  0.000008 -0.000251 -0.000275
  1H   1f-2      -0.000009 -0.000068  0.000002 -0.000010  0.000002 -0.000072
  1H   1f+3       0.000195  0.000038 -0.000089  0.000263 -0.000135  0.000074
  1H   1f-3      -0.000006  0.000348 -0.000352 -0.000017 -0.000775  0.000760
                     12        13        14        15        16        17   
                   0.11574   0.11690   0.16530   0.20773   0.22502   0.27560
                   0.00000   0.00000   0.00000   0.00000   0.00000   0.00000
                  --------  --------  --------  --------  --------  --------
  0Li  1s         0.000002 -0.000066  0.110674 -0.002810 -0.197229 -0.000000
  0Li  2s         0.000000  0.000003  0.005186 -0.011035  0.017501  0.000000
  0Li  3s         0.000003 -0.000091  0.141509  0.023355 -0.432268 -0.000001
  0Li  4s        -0.000040  0.001112 -2.028215  0.140413  3.748493 -0.000000
  0Li  5s         0.000121 -0.004026  4.400233 -5.962980 -3.990774  0.000010
  0Li  6s        -0.000039  0.001206 -1.833115  0.504659  1.637390 -0.000002
  0Li  1pz        0.000698 -0.000485  0.008045  0.000557  0.006910 -0.938895
  0Li  1px       -0.000007  0.000139 -0.247998 -0.132122 -0.225218 -0.000069
  0Li  1py       -0.000683 -0.000496  0.007869  0.000544  0.006759  0.956829
  0Li  2pz        0.000723 -0.000144 -0.051083  0.111249 -0.037814  1.206335
  0Li  2px        0.000062 -0.002179  1.972706 -4.425217  1.501812  0.000099
  0Li  2py       -0.000711 -0.000150 -0.049968  0.108823 -0.036989 -1.229374
  0Li  3pz       -0.001207  0.000469  0.022454 -0.004106  0.016110 -0.570012
  0Li  3px       -0.000014  0.000404 -0.824548  0.006377 -0.627791 -0.000044
  0Li  3py        0.001182  0.000480  0.021964 -0.004017  0.015759  0.580898
  0Li  4pz       -0.000000  0.000006 -0.000077 -0.000047  0.000053  0.017269
  0Li  4px        0.000000  0.000002  0.000893  0.004421 -0.003429  0.000001
  0Li  4py        0.000000  0.000006 -0.000075 -0.000046  0.000052 -0.017599
  0Li  1dz2       0.056236  0.000041 -0.023896 -0.030354 -0.063610  0.000855
  0Li  1dxz       0.001279 -0.001379 -0.001317 -0.003084 -0.005144 -0.012049
  0Li  1dyz       0.000000 -0.063170  0.000019  0.000061  0.000121 -0.000013
  0Li  1dx2y2     0.032469 -0.000070  0.041389  0.052578  0.110180  0.000491
  0Li  1dxy      -0.001251 -0.001410 -0.001288 -0.003017 -0.005031  0.012279
  0Li  2dz2      -0.897413  0.000196 -0.411238  1.292447 -0.283401 -0.002415
  0Li  2dxz      -0.024995  0.023004 -0.028744  0.104829 -0.022855  0.044043
  0Li  2dyz      -0.000001  1.035430  0.001084 -0.002705  0.000518  0.000050
  0Li  2dx2y2    -0.518103 -0.000343  0.712346 -2.238706  0.490889 -0.001376
  0Li  2dxy       0.024449  0.023516 -0.028117  0.102543 -0.022357 -0.044881
  0Li  1f0        0.000725 -0.000070  0.008449 -0.004807  0.005234 -0.025899
  0Li  1f+1      -0.020017  0.000114 -0.128476  0.065486 -0.086031 -0.001996
  0Li  1f-1       0.000022 -0.000476  0.003293 -0.001966  0.002044  0.013156
  0Li  1f+2      -0.000533  0.000643 -0.010803  0.006266 -0.006698  0.036389
  0Li  1f-2      -0.000000  0.019707  0.000392 -0.000200  0.000321  0.000063
  0Li  1f+3       0.015499  0.000147 -0.165873  0.084548 -0.111076  0.001542
  0Li  1f-3      -0.000879 -0.000458  0.013005 -0.007471  0.008059  0.043576
  1H   1s        -0.000000  0.000019 -0.057407 -0.023367 -0.046845 -0.000001
  1H   2s         0.000001 -0.000085  0.048180  0.022909  0.070637 -0.000000
  1H   3s        -0.000019  0.000630 -1.270063 -0.380455 -1.255556 -0.000005
  1H   4s        -0.000060  0.002374 -0.403254  7.816909 -0.041473 -0.000006
  1H   1pz        0.000034 -0.000019 -0.000099  0.000050 -0.000111 -0.004962
  1H   1px       -0.000000 -0.000012  0.003657 -0.005023  0.003213 -0.000000
  1H   1py       -0.000033 -0.000019 -0.000096  0.000049 -0.000109  0.005057
  1H   2pz       -0.000135 -0.000022  0.000022 -0.000649  0.000667  0.017158
  1H   2px        0.000000  0.000024  0.008988  0.039091 -0.021612  0.000001
  1H   2py        0.000132 -0.000023  0.000021 -0.000635  0.000652 -0.017486
  1H   3pz        0.000421  0.000035 -0.003225 -0.000454 -0.004836 -0.103238
  1H   3px        0.000003 -0.000141  0.154098 -0.053975  0.206615 -0.000008
  1H   3py       -0.000412  0.000036 -0.003155 -0.000444 -0.004732  0.105207
  1H   1dz2       0.000079 -0.000003  0.000606 -0.000537 -0.001486  0.000007
  1H   1dxz       0.000033  0.000038 -0.000038 -0.000098 -0.000155 -0.001179
  1H   1dyz      -0.000000  0.000025 -0.000043 -0.000013 -0.000016 -0.000004
  1H   1dx2y2     0.000046  0.000005 -0.001049  0.000932  0.002574  0.000004
  1H   1dxy      -0.000032  0.000039 -0.000037 -0.000096 -0.000152  0.001200
  1H   2dz2      -0.002982  0.000001  0.001312  0.002445  0.010846 -0.000480
  1H   2dxz      -0.000166  0.000013  0.000253  0.000358  0.000957  0.011337
  1H   2dyz      -0.000000  0.003649  0.000073  0.000016  0.000007  0.000016
  1H   2dx2y2    -0.001722 -0.000002 -0.002273 -0.004236 -0.018786 -0.000275
  1H   2dxy       0.000162  0.000013  0.000248  0.000350  0.000936 -0.011551
  1H   1f0        0.000011 -0.000021 -0.000125 -0.000059 -0.000032  0.000797
  1H   1f+1       0.000140  0.000005 -0.000579 -0.000285 -0.000527  0.000187
  1H   1f-1       0.000016  0.000064  0.000214  0.000094  0.000094  0.000297
  1H   1f+2       0.000012 -0.000063 -0.000180 -0.000077 -0.000097 -0.000249
  1H   1f-2       0.000000 -0.000696  0.000020  0.000006  0.000018  0.000002
  1H   1f+3      -0.000108  0.000007 -0.000746 -0.000367 -0.000679 -0.000145
  1H   1f-3      -0.000001  0.000023  0.000011  0.000000  0.000034 -0.000798
                     18        19        20        21        22        23   
                   0.27562   0.29145   0.38723   0.38725   0.41579   0.41871
                   0.00000   0.00000   0.00000   0.00000   0.00000   0.00000
                  --------  --------  --------  --------  --------  --------
  0Li  1s        -0.000078  0.048325 -0.000004 -0.000394 -0.000001 -0.000030
  0Li  2s         0.000117  0.020700 -0.000003 -0.000232 -0.000000 -0.000034
  0Li  3s        -0.000309 -0.003698 -0.000001 -0.000076 -0.000000  0.000012
  0Li  4s        -0.001160  0.160781  0.000039  0.003317  0.000006  0.000482
  0Li  5s         0.004406  1.868365 -0.000068 -0.005953 -0.000038 -0.001366
  0Li  6s        -0.001411 -0.014908  0.000019  0.001685  0.000008  0.000249
  0Li  1pz       -0.956349  0.013560  0.038150  0.038133 -0.000952 -0.000007
  0Li  1px       -0.043107 -0.764267  0.000050  0.004289 -0.000000  0.000314
  0Li  1py       -0.938430  0.013261 -0.038124  0.038139  0.000932 -0.000007
  0Li  2pz        1.228595 -0.048229  0.037073  0.036950  0.001175  0.000709
  0Li  2px        0.060019  2.248447 -0.000023 -0.001955 -0.000025 -0.000836
  0Li  2py        1.205572 -0.047173 -0.037064  0.036971 -0.001148  0.000724
  0Li  3pz       -0.580521  0.004336 -0.015124 -0.015049 -0.000738 -0.000387
  0Li  3px       -0.027675 -0.280692  0.000005  0.000403  0.000004  0.000090
  0Li  3py       -0.569643  0.004239  0.015121 -0.015059  0.000722 -0.000396
  0Li  4pz        0.017590  0.000014 -0.000033 -0.000034  0.000028 -0.000001
  0Li  4px        0.000821  0.003003 -0.000000 -0.000008  0.000000 -0.000006
  0Li  4py        0.017260  0.000014  0.000033 -0.000034 -0.000027 -0.000001
  0Li  1dz2       0.001062 -0.140229  0.003044  0.003825 -0.015761  0.000027
  0Li  1dxz      -0.012215 -0.011480 -0.083578 -0.083453 -0.001692 -0.000806
  0Li  1dyz       0.000636  0.000245 -0.000036  0.003373 -0.000000 -0.022874
  0Li  1dx2y2    -0.001800  0.242897  0.001659 -0.006551 -0.009104 -0.000047
  0Li  1dxy      -0.011987 -0.011230  0.083547 -0.083492  0.001656 -0.000824
  0Li  2dz2      -0.004895 -0.090395 -0.006534 -0.006475  0.031279  0.000072
  0Li  2dxz       0.044649 -0.006920  0.154444  0.154076  0.001412  0.001387
  0Li  2dyz      -0.002450  0.000231  0.000075 -0.006982  0.000000  0.033230
  0Li  2dx2y2     0.008364  0.156578 -0.003606  0.011054  0.018049 -0.000124
  0Li  2dxy       0.043809 -0.006769 -0.154382  0.154141 -0.001380  0.001418
  0Li  1f0       -0.026314  0.012145  0.386265  0.385955  0.034603  0.006486
  0Li  1f+1      -0.000941 -0.200382  0.041327  0.044396 -0.789198  0.001145
  0Li  1f-1      -0.012879  0.005109 -0.169839  0.168321  0.001274  0.028244
  0Li  1f+2       0.036984 -0.016015 -0.514127 -0.511789 -0.025152 -0.039972
  0Li  1f-2      -0.003062  0.000636 -0.000512  0.047234 -0.000001 -0.998264
  0Li  1f+3      -0.001130 -0.258719 -0.030992  0.056406  0.611376  0.001476
  0Li  1f-3      -0.042637  0.018986 -0.620009  0.618848 -0.041829  0.030267
  1H   1s        -0.000466  0.088236  0.000001  0.000122  0.000001 -0.000031
  1H   2s        -0.000432  0.078943  0.000002  0.000118 -0.000001  0.000152
  1H   3s        -0.003491  0.753396 -0.000033 -0.002713  0.000003 -0.000580
  1H   4s         0.000067 -3.351807  0.000040  0.003386  0.000031  0.001305
  1H   1pz       -0.005076 -0.000230 -0.009550 -0.009594  0.000092  0.000042
  1H   1px       -0.000333  0.016250 -0.000007 -0.000634 -0.000001  0.000021
  1H   1py       -0.004981 -0.000225  0.009545 -0.009597 -0.000090  0.000043
  1H   2pz        0.017513  0.000488  0.004682  0.004784 -0.000558  0.000071
  1H   2px        0.001033 -0.043151  0.000007  0.000646  0.000002 -0.000060
  1H   2py        0.017185  0.000477 -0.004676  0.004782  0.000546  0.000073
  1H   3pz       -0.105005 -0.009971 -0.099012 -0.098854  0.001569 -0.000702
  1H   3px       -0.005904  0.435759 -0.000069 -0.006194 -0.000004 -0.000028
  1H   3py       -0.103035 -0.009752  0.098956 -0.098881 -0.001535 -0.000718
  1H   1dz2       0.000064 -0.000796 -0.000320 -0.000231 -0.001973  0.000009
  1H   1dxz      -0.001171 -0.000073  0.006612  0.006649  0.000073 -0.000199
  1H   1dyz       0.000211  0.000021  0.000000 -0.000019 -0.000000 -0.002676
  1H   1dx2y2    -0.000111  0.001379 -0.000179  0.000392 -0.001139 -0.000015
  1H   1dxy      -0.001148 -0.000071 -0.006610  0.006654 -0.000071 -0.000204
  1H   2dz2      -0.000511  0.009725  0.001267  0.001211  0.002068 -0.000015
  1H   2dxz       0.011477  0.000924 -0.032745 -0.032793 -0.000349  0.000399
  1H   2dyz      -0.000797 -0.000034 -0.000012  0.001083  0.000000  0.001736
  1H   2dx2y2     0.000862 -0.016850  0.000700 -0.002065  0.001194  0.000026
  1H   2dxy       0.011260  0.000904  0.032736 -0.032811  0.000342  0.000408
  1H   1f0        0.000814  0.000084  0.000438  0.000438  0.000175  0.000077
  1H   1f+1       0.000053 -0.000431  0.000260  0.000007 -0.001906 -0.000012
  1H   1f-1      -0.000276 -0.000033  0.000991 -0.000962  0.000104 -0.000100
  1H   1f+2      -0.000275 -0.000022  0.000915  0.000878 -0.000001  0.000064
  1H   1f-2      -0.000087 -0.000023  0.000003 -0.000291 -0.000000 -0.000734
  1H   1f+3       0.000061 -0.000558 -0.000202  0.000003  0.001477 -0.000015
  1H   1f-3       0.000797  0.000078  0.000214 -0.000192 -0.000136  0.000022
                     24        25        26        27        28        29   
                   0.42992   0.42994   0.56317   0.56702   0.56727   0.64392
                   0.00000   0.00000   0.00000   0.00000   0.00000   0.00000
                  --------  --------  --------  --------  --------  --------
  0Li  1s         0.000069  0.000001 -0.046319  0.000064  0.009359 -0.000009
  0Li  2s         0.000095  0.000002 -0.000660 -0.000001 -0.000193  0.000009
  0Li  3s        -0.000033 -0.000001 -0.164456  0.000235  0.034707 -0.000025
  0Li  4s        -0.000250 -0.000004  0.882537 -0.001252 -0.184160 -0.000001
  0Li  5s        -0.003704 -0.000060  4.224065 -0.006019 -0.887135 -0.000115
  0Li  6s         0.000718  0.000012 -0.559281  0.000795  0.117157  0.000031
  0Li  1pz        0.003232  0.003068 -0.063616 -0.191797 -0.184229 -0.000312
  0Li  1px       -0.000634 -0.000010  0.919443 -0.001360 -0.200618 -0.000042
  0Li  1py        0.003272 -0.003034 -0.062196  0.193703 -0.182642 -0.000319
  0Li  2pz       -0.002777 -0.002784 -0.105737 -0.083598 -0.064251 -0.000174
  0Li  2px       -0.002989 -0.000049  3.785384 -0.005420 -0.798987 -0.000066
  0Li  2py       -0.002814  0.002756 -0.103417  0.084650 -0.063914 -0.000178
  0Li  3pz        0.001100  0.001080  0.012073  0.020502  0.018679  0.000006
  0Li  3px        0.000405  0.000007 -0.355758  0.000514  0.075740  0.000014
  0Li  3py        0.001114 -0.001068  0.011807 -0.020721  0.018532  0.000006
  0Li  4pz       -0.000052 -0.000049  0.001227  0.003082  0.002916  0.000009
  0Li  4px        0.000013  0.000000 -0.023442  0.000034  0.005067  0.000004
  0Li  4py       -0.000052  0.000048  0.001200 -0.003113  0.002892  0.000009
  0Li  1dz2       0.000075 -0.000345 -0.065212 -0.026684 -0.009812 -0.000598
  0Li  1dxz      -0.003173 -0.003110  0.107088  0.553074  0.547573  0.028563
  0Li  1dyz       0.001045 -0.000006 -0.005373  0.000427 -0.026459  1.242417
  0Li  1dx2y2    -0.000133 -0.000202  0.112676 -0.015280  0.016061  0.001032
  0Li  1dxy      -0.003212  0.003076  0.104666 -0.558391  0.542679  0.029200
  0Li  2dz2       0.000839  0.000160 -1.156516  0.028161  0.267324  0.000352
  0Li  2dxz       0.001975  0.001785 -0.216587 -0.591740 -0.564291 -0.016578
  0Li  2dyz      -0.000532  0.000003  0.008021 -0.000452  0.027291 -0.693934
  0Li  2dx2y2    -0.001452  0.000061  2.003521  0.012097 -0.462115 -0.000607
  0Li  2dxy       0.001997 -0.001764 -0.211767  0.597704 -0.559511 -0.016948
  0Li  1f0        0.560204  0.566848  0.113773  0.263585  0.248182  0.000378
  0Li  1f+1       0.001375  0.013764 -1.008110  0.027342  0.240151  0.000020
  0Li  1f-1      -0.686369  0.678568  0.043965 -0.106816  0.097427  0.001434
  0Li  1f+2       0.424171  0.429356 -0.145021 -0.337957 -0.316548 -0.002067
  0Li  1f-2      -0.027114  0.000139  0.009949 -0.000496  0.029608 -0.021978
  0Li  1f+3       0.001627 -0.010617 -1.301839 -0.017840  0.309255  0.000026
  0Li  1f-3       0.185295 -0.183062  0.174787 -0.419603  0.386824  0.001599
  1H   1s         0.000086  0.000001 -0.012651  0.000017  0.002441  0.000021
  1H   2s        -0.000061 -0.000001  0.217962 -0.000314 -0.046204 -0.000108
  1H   3s         0.002009  0.000033 -2.491660  0.003523  0.518545  0.000040
  1H   4s         0.003160  0.000051 -4.651056  0.006637  0.978192  0.000096
  1H   1pz       -0.000032 -0.000014  0.005923  0.027621  0.027312 -0.000002
  1H   1px       -0.000034 -0.000001 -0.004432  0.000015  0.002354 -0.000027
  1H   1py       -0.000032  0.000013  0.005790 -0.027887  0.027068 -0.000002
  1H   2pz       -0.000469 -0.000532 -0.019305 -0.093135 -0.092119 -0.000192
  1H   2px        0.000069  0.000001 -0.012128 -0.000011 -0.002040  0.000070
  1H   2py       -0.000475  0.000527 -0.018868  0.094027 -0.091293 -0.000196
  1H   3pz       -0.001624 -0.001374  0.136181  0.667732  0.659596  0.001357
  1H   3px        0.000015  0.000000  0.132924  0.000002  0.002194 -0.000074
  1H   3py       -0.001644  0.001359  0.133098 -0.674133  0.653683  0.001387
  1H   1dz2      -0.000007 -0.000034 -0.001090  0.000064  0.000182 -0.000007
  1H   1dxz       0.000229  0.000231 -0.000067  0.000181  0.000117  0.000063
  1H   1dyz       0.000039 -0.000000 -0.000071  0.000007 -0.000457 -0.002638
  1H   1dx2y2     0.000011 -0.000019  0.001888  0.000034 -0.000313  0.000013
  1H   1dxy       0.000232 -0.000228 -0.000066 -0.000179  0.000112  0.000065
  1H   2dz2       0.000017 -0.000068  0.001939  0.000490 -0.000046  0.000002
  1H   2dxz      -0.000807 -0.000812 -0.001218 -0.007196 -0.006964  0.000205
  1H   2dyz      -0.000066  0.000000  0.000183 -0.000017  0.001059  0.021195
  1H   2dx2y2    -0.000029 -0.000040 -0.003353  0.000284  0.000096 -0.000003
  1H   2dxy      -0.000817  0.000803 -0.001189  0.007257 -0.006893  0.000210
  1H   1f0        0.000141  0.000142  0.000132  0.000275  0.000258 -0.000066
  1H   1f+1       0.000016  0.000006 -0.000155 -0.000308  0.000145  0.000017
  1H   1f-1      -0.000137  0.000128  0.000282 -0.001952  0.001862  0.000183
  1H   1f+2       0.000063  0.000054 -0.000468 -0.002660 -0.002578 -0.000176
  1H   1f-2       0.000073 -0.000000  0.000098 -0.000009  0.000574 -0.001485
  1H   1f+3       0.000021 -0.000004 -0.000198  0.000241  0.000197  0.000021
  1H   1f-3       0.000074 -0.000078  0.000381 -0.001862  0.001766  0.000057
                     30        31        32        33        34        35   
                   0.64405   0.70942   0.80470   0.80477   0.99662   1.15884
                   0.00000   0.00000   0.00000   0.00000   0.00000   0.00000
                  --------  --------  --------  --------  --------  --------
  0Li  1s        -0.000000  0.013481 -0.000002 -0.000071 -0.023973 -0.066227
  0Li  2s         0.000000  0.051185  0.000001  0.000058  0.067427 -0.267137
  0Li  3s        -0.000000 -0.114197 -0.000016 -0.000643 -0.414232  0.915368
  0Li  4s         0.000000  0.801554  0.000140  0.005393  3.041170 -4.608540
  0Li  5s        -0.000012  1.757789  0.000146  0.005600  0.235939  1.628248
  0Li  6s         0.000001  0.147332 -0.000009 -0.000324  0.346544 -0.412829
  0Li  1pz       -0.000294 -0.008119  0.229546  0.222482 -0.044556  0.063315
  0Li  1px       -0.000001  0.343630  0.000380  0.014554  1.864965 -2.653804
  0Li  1py        0.000288 -0.007942 -0.222735  0.229310 -0.043583  0.061935
  0Li  2pz       -0.000516 -0.036531  0.258196  0.250298 -0.034541  0.025621
  0Li  2px       -0.000009  1.522649  0.000508  0.019472  1.449694 -1.029998
  0Li  2py        0.000505 -0.035735 -0.250534  0.257978 -0.033787  0.025063
  0Li  3pz        0.000104 -0.004216 -0.082107 -0.079632  0.000700 -0.008234
  0Li  3px       -0.000000  0.180374 -0.000120 -0.004610 -0.029290  0.330465
  0Li  3py       -0.000102 -0.004124  0.079669 -0.082074  0.000685 -0.008055
  0Li  4pz        0.000007  0.000317 -0.003172 -0.003072  0.001004 -0.001764
  0Li  4px        0.000000 -0.013292 -0.000007 -0.000263 -0.041898  0.073504
  0Li  4py       -0.000007  0.000310  0.003078 -0.003167  0.000982 -0.001725
  0Li  1dz2       1.075929  0.520968 -0.033121 -0.032858 -0.748296  0.739185
  0Li  1dxz       0.031820  0.043874  0.800358  0.774965 -0.061920  0.060890
  0Li  1dyz       0.000002 -0.001011 -0.000147 -0.036372  0.001417 -0.001405
  0Li  1dx2y2     0.621226 -0.902381 -0.017132  0.057216  1.296150 -1.280373
  0Li  1dxy      -0.031127  0.042916 -0.776642  0.798783 -0.060569  0.059563
  0Li  2dz2      -0.599645 -0.600768 -0.002642 -0.004725 -0.227026  0.276230
  0Li  2dxz      -0.018797 -0.050141  0.058589  0.056779 -0.018648  0.024095
  0Li  2dyz      -0.000001  0.001151 -0.000013 -0.003307  0.000442 -0.000570
  0Li  2dx2y2    -0.346232  1.040609 -0.001241  0.008208  0.393240 -0.478470
  0Li  2dxy       0.018388 -0.049048 -0.056856  0.058527 -0.018241  0.023570
  0Li  1f0        0.002004 -0.003435 -0.374786 -0.363430  0.020028 -0.014802
  0Li  1f+1      -0.013970  0.058983 -0.037650 -0.044662 -0.343266  0.242320
  0Li  1f-1      -0.000013 -0.001379  0.149794 -0.152529  0.007996 -0.005992
  0Li  1f+2      -0.001569  0.004444  0.485540  0.468664 -0.025854  0.019215
  0Li  1f-2      -0.000000 -0.000247 -0.000183 -0.045270  0.001174 -0.000881
  0Li  1f+3       0.010825  0.076154  0.026746 -0.057966 -0.443196  0.312872
  0Li  1f-3      -0.002490 -0.005317  0.576082 -0.592012  0.030975 -0.022958
  1H   1s        -0.000000  0.006103  0.000001  0.000032 -0.084337 -0.007679
  1H   2s         0.000001 -0.280230  0.000085  0.003261 -1.195331 -1.927406
  1H   3s        -0.000007  1.519204 -0.000288 -0.011071 -0.586418  6.187902
  1H   4s         0.000019 -4.305283 -0.000193 -0.007465 -3.098087 -0.248871
  1H   1pz        0.000069 -0.000934 -0.044147 -0.042837 -0.001485  0.000597
  1H   1px        0.000000  0.042679 -0.000053 -0.002034  0.046711 -0.055885
  1H   1py       -0.000068 -0.000913  0.042833 -0.044148 -0.001452  0.000583
  1H   2pz       -0.000161  0.002596  0.175463  0.170186  0.006839 -0.004477
  1H   2px       -0.000000 -0.113228  0.000204  0.007803 -0.227830  0.292427
  1H   2py        0.000157  0.002538 -0.170243  0.175396  0.006691 -0.004377
  1H   3pz        0.002096 -0.018859 -1.224759 -1.187907 -0.044378  0.050642
  1H   3px       -0.000000  0.794845 -0.001435 -0.054939  1.796289 -2.239918
  1H   3py       -0.002050 -0.018446  1.188375 -1.224322 -0.043410  0.049534
  1H   1dz2      -0.002707  0.003367  0.000233  0.000068 -0.003835 -0.002927
  1H   1dxz      -0.000155  0.000119 -0.001070 -0.001006 -0.000250  0.000188
  1H   1dyz      -0.000000 -0.000062  0.000000  0.000097 -0.000055 -0.000025
  1H   1dx2y2    -0.001563 -0.005829  0.000131 -0.000120  0.006640  0.005063
  1H   1dxy       0.000151  0.000116  0.001038 -0.001037 -0.000244  0.000183
  1H   2dz2       0.018325 -0.023129 -0.000641  0.000206  0.017549  0.037208
  1H   2dxz       0.000646 -0.001467 -0.006907 -0.006787  0.000914  0.001099
  1H   2dyz       0.000000  0.000171  0.000002  0.000499  0.000011 -0.000294
  1H   2dx2y2     0.010580  0.040055 -0.000383 -0.000350 -0.030385 -0.064416
  1H   2dxy      -0.000632 -0.001434  0.006701 -0.006994  0.000895  0.001075
  1H   1f0       -0.000096 -0.000232  0.002672  0.002590 -0.000109 -0.000106
  1H   1f+1       0.000195 -0.000085  0.000383  0.000309 -0.001874  0.000768
  1H   1f-1      -0.000073  0.000299 -0.000738  0.000758  0.000253  0.000069
  1H   1f+2      -0.000020 -0.000207 -0.003031 -0.002935 -0.000244 -0.000008
  1H   1f-2      -0.000000  0.000015  0.000001  0.000133  0.000086  0.000174
  1H   1f+3      -0.000152 -0.000108 -0.000280  0.000402 -0.002416  0.000995
  1H   1f-3       0.000062 -0.000056 -0.003851  0.003963  0.000061 -0.000078
                     36        37        38        39        40        41   
                   1.27787   1.87225   1.90590   1.97848   1.97918   2.19203
                   0.00000   0.00000   0.00000   0.00000   0.00000   0.00000
                  --------  --------  --------  --------  --------  --------
  0Li  1s         0.292676  0.000034 -0.000003  0.000003 -0.000914 -0.129542
  0Li  2s         1.096543  0.000002 -0.000002  0.000004 -0.001633 -0.310768
  0Li  3s        -2.487799 -0.000066  0.000004 -0.000007  0.002913  0.591590
  0Li  4s         2.737087  0.001259 -0.000013 -0.000006  0.001269  0.396830
  0Li  5s        -2.368213  0.000214 -0.000019  0.000014 -0.004690 -0.650069
  0Li  6s         0.812035  0.000016 -0.000005  0.000003 -0.000871 -0.030513
  0Li  1pz       -0.000473 -0.000592 -0.009192 -0.176806 -0.181811 -0.020113
  0Li  1px        0.016348  0.000721 -0.000008  0.000011 -0.003353  0.975906
  0Li  1py       -0.000463 -0.000604  0.009007  0.181853 -0.176742 -0.019674
  0Li  2pz       -0.002858  0.002403  0.006581  0.107028  0.110378  0.012593
  0Li  2px        0.124647  0.000859 -0.000011 -0.000008  0.001837 -0.509787
  0Li  2py       -0.002795  0.002458 -0.006446 -0.110111  0.107328  0.012320
  0Li  3pz        0.000376 -0.000707 -0.001878 -0.029764 -0.030659  0.000311
  0Li  3px       -0.017104 -0.000163 -0.000005  0.000008 -0.002284 -0.019444
  0Li  3py        0.000368 -0.000723  0.001840  0.030621 -0.029812  0.000304
  0Li  4pz        0.000113 -0.000063 -0.000364 -0.007743 -0.007977  0.000010
  0Li  4px       -0.004694 -0.000025  0.000001  0.000001 -0.000256  0.005098
  0Li  4py        0.000111 -0.000065  0.000356  0.007964 -0.007755  0.000010
  0Li  1dz2      -0.023274 -0.000075 -0.118171  0.020396  0.012131 -0.405808
  0Li  1dxz      -0.002119  0.001546 -0.020931 -0.337827 -0.347276 -0.028329
  0Li  1dyz       0.000064  0.138919 -0.000000 -0.000357  0.014245  0.000582
  0Li  1dx2y2     0.040312  0.000131 -0.068254  0.011859 -0.019836  0.702909
  0Li  1dxy      -0.002072  0.001580  0.020504  0.347486 -0.337610 -0.027711
  0Li  2dz2      -0.068129 -0.000333 -0.018755 -0.005975 -0.006687  0.090702
  0Li  2dxz      -0.005500  0.003554  0.009377  0.168754  0.173605  0.007395
  0Li  2dyz       0.000126  0.020651  0.000000  0.000211 -0.008393 -0.000162
  0Li  2dx2y2     0.118008  0.000578 -0.010817 -0.003498  0.011233 -0.157107
  0Li  2dxy      -0.005380  0.003636 -0.009187 -0.173602  0.168795  0.007235
  0Li  1f0        0.007100 -0.000908  0.013206  0.035593  0.037144  0.009144
  0Li  1f+1      -0.120699 -0.000435 -0.200832  0.014417  0.003451 -0.184937
  0Li  1f-1       0.002850 -0.009981  0.004300 -0.015439  0.014683  0.003625
  0Li  1f+2      -0.009185  0.013053 -0.004667 -0.046580 -0.047900 -0.011771
  0Li  1f-2       0.000446  0.255650  0.000001 -0.000019  0.000793  0.000528
  0Li  1f+3      -0.155835 -0.000563  0.155581 -0.011187  0.003723 -0.238776
  0Li  1f-3       0.010992 -0.008907 -0.013013 -0.058297  0.057077  0.014121
  1H   1s         0.016160 -0.000195  0.000006 -0.000002  0.000871  0.013883
  1H   2s        -0.246097  0.000897  0.000024 -0.000022  0.006312  0.387376
  1H   3s        -0.059015 -0.001809 -0.000062  0.000065 -0.020730 -2.178041
  1H   4s        -0.011955 -0.000779  0.000073 -0.000047  0.015796  1.550649
  1H   1pz        0.000604 -0.001921 -0.004984 -0.077284 -0.079377  0.003054
  1H   1px       -0.036981  0.000181 -0.000012  0.000016 -0.005330 -0.159961
  1H   1py        0.000591 -0.001964  0.004884  0.079506 -0.077181  0.002987
  1H   2pz       -0.003374  0.015055  0.034028  0.574163  0.591795 -0.027833
  1H   2px        0.178673 -0.000143  0.000092 -0.000125  0.040563  1.344795
  1H   2py       -0.003300  0.015398 -0.033337 -0.590724  0.575463 -0.027217
  1H   3pz        0.006459 -0.011054 -0.015087 -0.211288 -0.218587 -0.001334
  1H   3px       -0.297755  0.000758 -0.000054  0.000048 -0.015419 -0.277120
  1H   3py        0.006317 -0.011306  0.014778  0.217456 -0.212626 -0.001312
  1H   1dz2      -0.017916 -0.000023 -0.119145  0.003134 -0.003575 -0.035540
  1H   1dxz      -0.001304  0.003085  0.001037  0.082169  0.083806 -0.004009
  1H   1dyz       0.000014  0.136532  0.000001  0.000183 -0.007242 -0.000009
  1H   1dx2y2     0.031030  0.000040 -0.068784  0.001785  0.006363  0.061569
  1H   1dxy      -0.001276  0.003154 -0.001022 -0.084493  0.081448 -0.003922
  1H   2dz2       0.148927  0.000648  0.965603 -0.023204  0.029099  0.326552
  1H   2dxz       0.011568 -0.031812 -0.011001 -0.696155 -0.713180  0.035976
  1H   2dyz      -0.000387 -1.114044 -0.000006 -0.001235  0.048980 -0.001404
  1H   2dx2y2    -0.257950 -0.001130  0.557452 -0.013191 -0.051650 -0.565693
  1H   2dxy       0.011316 -0.032524  0.010823  0.715970 -0.693245  0.035191
  1H   1f0        0.000141  0.000058 -0.001332 -0.006149 -0.006526 -0.001034
  1H   1f+1      -0.003603 -0.000200  0.003139 -0.002518 -0.000050  0.000186
  1H   1f-1       0.000191 -0.001303 -0.000753 -0.005635  0.005246  0.001004
  1H   1f+2      -0.000356  0.001567  0.000058 -0.002181 -0.001785 -0.000498
  1H   1f-2       0.000117  0.013787 -0.000000 -0.000080  0.003139  0.000262
  1H   1f+3      -0.004650 -0.000258 -0.002433  0.001952  0.000065  0.000253
  1H   1f-3       0.000322 -0.000935  0.001065  0.003648 -0.003975 -0.000503
                     42        43        44        45        46        47   
                   2.39298   2.39340   2.74697   5.03896   5.40461   5.40473
                   0.00000   0.00000   0.00000   0.00000   0.00000   0.00000
                  --------  --------  --------  --------  --------  --------
  0Li  1s        -0.001173  0.000007 -0.075110 -0.044395 -0.000382  0.000006
  0Li  2s        -0.004116  0.000026 -0.419874  0.066321 -0.000039  0.000001
  0Li  3s         0.007645 -0.000047  0.790152 -0.070851  0.000903 -0.000014
  0Li  4s         0.018405 -0.000116  3.252767 -0.585527 -0.000282  0.000004
  0Li  5s        -0.006026  0.000037 -0.278293  0.576340  0.001931 -0.000029
  0Li  6s         0.000722 -0.000005  0.224612  0.011776 -0.000353  0.000005
  0Li  1pz       -0.260675 -0.251575 -0.066684  0.010390 -0.293015  0.295440
  0Li  1px        0.008060 -0.000057  2.809792 -0.435775 -0.013445  0.000193
  0Li  1py       -0.252140  0.260135 -0.065228  0.010163 -0.294997 -0.293464
  0Li  2pz       -0.173822 -0.168301 -0.019145 -0.003038  0.184752 -0.186298
  0Li  2px       -0.007667  0.000042  0.838020  0.120409  0.009841 -0.000142
  0Li  2py       -0.168110  0.174005 -0.018726 -0.002972  0.186003  0.185052
  0Li  3pz        0.054929  0.053169  0.001178 -0.002800 -0.079841  0.080503
  0Li  3px        0.001984 -0.000011 -0.060838  0.118821 -0.003849  0.000056
  0Li  3py        0.053125 -0.054971  0.001152 -0.002738 -0.080381 -0.079965
  0Li  4pz       -0.009346 -0.009038  0.000985  0.000371  0.719543 -0.725258
  0Li  4px       -0.000654  0.000004 -0.040093 -0.022474  0.034920 -0.000503
  0Li  4py       -0.009040  0.009346  0.000963  0.000363  0.724412  0.720406
  0Li  1dz2       0.009672  0.015042 -0.637170  0.065160  0.001601 -0.001869
  0Li  1dxz      -0.373820 -0.361269 -0.052264  0.005326 -0.041657  0.042152
  0Li  1dyz       0.018012 -0.000500  0.001216 -0.000136  0.001418  0.000011
  0Li  1dx2y2    -0.015787  0.008800  1.103660 -0.112869 -0.002739 -0.001027
  0Li  1dxy      -0.361582  0.373563 -0.051121  0.005210 -0.041940 -0.041871
  0Li  2dz2       0.006591  0.006827 -0.237897  0.005724  0.000722 -0.000910
  0Li  2dxz      -0.171021 -0.165836 -0.018684  0.000321 -0.023175  0.023330
  0Li  2dyz       0.008216 -0.000228  0.000407  0.000002  0.001351  0.000010
  0Li  2dx2y2    -0.010977  0.004023  0.412067 -0.009912 -0.001235 -0.000502
  0Li  2dxy      -0.165392  0.171448 -0.018275  0.000313 -0.023332 -0.023174
  0Li  1f0        0.203273  0.196517  0.010442  0.001127  0.032372 -0.032637
  0Li  1f+1       0.021663  0.019249 -0.188763 -0.016675  0.003674 -0.003263
  0Li  1f-1       0.080201 -0.083883  0.004146  0.000338  0.013446  0.013513
  0Li  1f+2      -0.262397 -0.254894 -0.013450 -0.001310 -0.041970  0.042490
  0Li  1f-2       0.025930 -0.000720  0.000590  0.000057  0.003751  0.000029
  0Li  1f+3       0.026859 -0.015156 -0.243707 -0.021531  0.004693  0.002419
  0Li  1f-3       0.310845 -0.322028  0.016130  0.001657  0.051645  0.051480
  1H   1s        -0.001477  0.000009  0.053978  1.794923  0.000788 -0.000011
  1H   2s         0.008066 -0.000049  0.796370 -2.973388 -0.000955  0.000012
  1H   3s        -0.034982  0.000215 -3.928179  2.866889  0.000018  0.000002
  1H   4s         0.005049 -0.000028 -1.371772 -1.244354 -0.001958  0.000029
  1H   1pz        0.136145  0.131835 -0.004062 -0.000175 -0.006544  0.006592
  1H   1px        0.006732 -0.000038  0.158253 -0.002058  0.000357 -0.000005
  1H   1py        0.131671 -0.136303 -0.003974 -0.000170 -0.006586 -0.006546
  1H   2pz       -1.181182 -1.143673  0.040032 -0.003562 -0.032875  0.033282
  1H   2px       -0.052605  0.000298 -1.431721  0.113530 -0.002474  0.000036
  1H   2py       -1.142354  1.182427  0.039167 -0.003486 -0.033099 -0.033062
  1H   3pz        1.331834  1.289346 -0.082241  0.010356  0.117608 -0.118731
  1H   3px        0.075346 -0.000436  3.198229 -0.394200  0.006579 -0.000096
  1H   3py        1.288099 -1.333083 -0.080457  0.010131  0.118406  0.117938
  1H   1dz2      -0.002487 -0.002025 -0.051364 -0.015214  0.001157 -0.000746
  1H   1dxz       0.050330  0.048554 -0.004255 -0.002227 -0.019168  0.019640
  1H   1dyz      -0.001584  0.000044  0.000174 -0.000146  0.001277  0.000010
  1H   1dx2y2     0.004175 -0.001202  0.088968  0.026358 -0.001991 -0.000392
  1H   1dxy       0.048688 -0.050212 -0.004162 -0.002179 -0.019301 -0.019512
  1H   2dz2       0.025647  0.021252  0.584962 -0.053648  0.001986 -0.002145
  1H   2dxz      -0.499172 -0.482967  0.048850 -0.004026 -0.049272  0.049591
  1H   2dyz       0.016299 -0.000451 -0.001106  0.000099  0.001980  0.000015
  1H   2dx2y2    -0.043050  0.012607 -1.013204  0.092917 -0.003403 -0.001173
  1H   2dxy      -0.482849  0.499422  0.047788 -0.003939 -0.049607 -0.049261
  1H   1f0        0.002256  0.002046 -0.001012 -0.001753  0.094488 -0.093754
  1H   1f+1      -0.000210  0.000133  0.021049 -0.042847  0.008062 -0.010886
  1H   1f-1       0.001396 -0.001432 -0.000838  0.004531  0.031228  0.030788
  1H   1f+2      -0.003569 -0.003332  0.001868 -0.004502 -0.112414  0.111817
  1H   1f-2      -0.000945  0.000027 -0.000172  0.000187  0.001118  0.000006
  1H   1f+3      -0.000280 -0.000101  0.027171 -0.055260  0.010232  0.008203
  1H   1f-3       0.003846 -0.003789 -0.001901  0.001339  0.144521  0.141649
                     48        49        50        51        52        53   
                   5.59677   5.65866   5.66237   5.67836   5.71624   5.71652
                   0.00000   0.00000   0.00000   0.00000   0.00000   0.00000
                  --------  --------  --------  --------  --------  --------
  0Li  1s        -0.001091 -0.029773  0.000120 -0.079198 -0.000660  0.008767
  0Li  2s        -0.000239 -0.003340  0.000014 -0.010808 -0.000085  0.001120
  0Li  3s         0.003115  0.079800 -0.000324  0.220193  0.001867 -0.024763
  0Li  4s        -0.001709 -0.089767  0.000366 -0.265551 -0.002775  0.036916
  0Li  5s         0.004084  0.103061 -0.000412  0.272638  0.002150 -0.028559
  0Li  6s        -0.001165 -0.031053  0.000126 -0.087049 -0.000741  0.009839
  0Li  1pz       -0.015489  0.048597  0.046619 -0.001739 -0.108369  0.107925
  0Li  1px       -0.000071 -0.015740  0.000069 -0.066801 -0.001413  0.018900
  0Li  1py       -0.015840  0.047209 -0.047984 -0.001703  0.093590  0.121443
  0Li  2pz        0.009055 -0.029389 -0.028087  0.001123  0.061106 -0.060875
  0Li  2px        0.002251  0.026052 -0.000103  0.062940  0.000462 -0.006155
  0Li  2py        0.009263 -0.028546  0.028906  0.001099 -0.052765 -0.068491
  0Li  3pz       -0.004022  0.012724  0.012273 -0.000684 -0.026777  0.026671
  0Li  3px       -0.000541 -0.005197  0.000022 -0.017153 -0.000219  0.002913
  0Li  3py       -0.004114  0.012359 -0.012630 -0.000669  0.023122  0.030009
  0Li  4pz        0.024033 -0.070150 -0.065268 -0.002061  0.138656 -0.137633
  0Li  4px        0.004522  0.096577 -0.000397  0.284337  0.003135 -0.041716
  0Li  4py        0.024583 -0.068156  0.067192 -0.002014 -0.119806 -0.154935
  0Li  1dz2       0.000192  0.001572  0.004554  0.012320 -0.019466 -0.007140
  0Li  1dxz      -0.007375  0.031597  0.030713 -0.001216 -0.078618  0.077761
  0Li  1dyz       0.059436  0.000007 -0.000007 -0.000564 -0.000142  0.002576
  0Li  1dx2y2    -0.000333 -0.002469  0.002648 -0.021407 -0.012275  0.009762
  0Li  1dxy      -0.007543  0.030689 -0.031607 -0.001190  0.067961  0.087568
  0Li  2dz2      -0.000453 -0.003904 -0.002001 -0.008288  0.008225  0.001063
  0Li  2dxz       0.001067 -0.008403 -0.008255  0.000559  0.019272 -0.018995
  0Li  2dyz      -0.024480 -0.000194  0.000007  0.000214  0.000089 -0.001612
  0Li  2dx2y2     0.000784  0.006649 -0.001190  0.014381  0.004852 -0.000761
  0Li  2dxy       0.001093 -0.008157  0.008490  0.000547 -0.016663 -0.021395
  0Li  1f0        0.001685 -0.017651 -0.017899  0.004755  0.010262 -0.010484
  0Li  1f+1       0.000072 -0.000847  0.001570  0.002904 -0.010355 -0.003529
  0Li  1f-1      -0.000021  0.011719 -0.013167 -0.005833 -0.010913 -0.013216
  0Li  1f+2      -0.001279 -0.001596 -0.002326  0.003852 -0.023788  0.022861
  0Li  1f-2       0.030415  0.000984 -0.000030 -0.000707 -0.000071  0.001286
  0Li  1f+3       0.000092 -0.001171 -0.001212  0.003769  0.008473 -0.003321
  0Li  1f-3       0.002164 -0.012605  0.013098  0.001371 -0.019622 -0.025117
  1H   1s        -0.001595 -0.026709  0.000121 -0.104187 -0.000837  0.010984
  1H   2s         0.003645  0.054398 -0.000242  0.197937  0.001489 -0.019529
  1H   3s        -0.004246 -0.034464  0.000152 -0.110360 -0.000287  0.003541
  1H   4s        -0.001458 -0.020417  0.000069 -0.020510  0.000256 -0.003354
  1H   1pz       -0.003583  0.013507  0.015132 -0.004297 -0.015600  0.014673
  1H   1px       -0.000060 -0.004335  0.000022 -0.027051 -0.000531  0.007056
  1H   1py       -0.003667  0.013078 -0.015532 -0.004200  0.013572  0.016615
  1H   2pz       -0.002842  0.003308  0.000750  0.004399 -0.012103  0.012496
  1H   2px       -0.001674 -0.015664  0.000062 -0.036289 -0.000004  0.000016
  1H   2py       -0.002908  0.003251 -0.000811  0.004300  0.010403  0.014010
  1H   3pz        0.009987 -0.028271 -0.025605 -0.001802  0.071776 -0.071924
  1H   3px        0.002829  0.019638 -0.000079  0.044368  0.000189 -0.002480
  1H   3py        0.010216 -0.027488  0.026380 -0.001760 -0.061936 -0.080879
  1H   1dz2       0.000837  0.011532 -0.002391  0.031740  0.006691 -0.002549
  1H   1dxz      -0.007301  0.013794  0.010519  0.004933 -0.023687  0.023667
  1H   1dyz      -0.018196  0.001258 -0.000032 -0.000509  0.000112 -0.002017
  1H   1dx2y2    -0.001451 -0.020123 -0.001273 -0.054974  0.003357  0.005254
  1H   1dxy      -0.007470  0.013428 -0.010857  0.004825  0.020452  0.026626
  1H   2dz2       0.000047  0.000785 -0.000158  0.001926  0.005231 -0.001668
  1H   2dxz      -0.000052  0.005824  0.005851 -0.000168 -0.029438  0.029648
  1H   2dyz       0.009932 -0.000650  0.000016  0.000067  0.000129 -0.002371
  1H   2dx2y2    -0.000081 -0.001362 -0.000084 -0.003331  0.002685  0.003546
  1H   2dxy      -0.000053  0.005662 -0.006027 -0.000165  0.025393  0.033329
  1H   1f0       -0.035271  0.660011  0.656639 -0.182120 -0.120249  0.178578
  1H   1f+1      -0.014336 -0.178129  0.134951 -0.547114 -0.378719  0.084113
  1H   1f-1      -0.067382 -0.515457  0.571126  0.247901  0.385000  0.424506
  1H   1f+2       0.110709  0.159855  0.193117 -0.179061  0.646070 -0.606829
  1H   1f-2       0.986790  0.006744 -0.000206  0.004846 -0.009331  0.170569
  1H   1f+3      -0.018522 -0.236777 -0.102999 -0.704875  0.277145  0.151651
  1H   1f-3      -0.097895  0.412100 -0.412955 -0.033720  0.421292  0.574444
                     54        55        56        57        58        59   
                   5.72554   6.25947   7.46330   7.46333   7.49181   7.75282
                   0.00000   0.00000   0.00000   0.00000   0.00000   0.00000
                  --------  --------  --------  --------  --------  --------
  0Li  1s        -0.000061  0.276240  0.040824 -0.019836  0.311745 -0.000459
  0Li  2s        -0.000006 -0.238164 -0.045636  0.022175 -0.352450  0.000506
  0Li  3s         0.000168  0.144564  0.014103 -0.006853  0.115122 -0.000108
  0Li  4s        -0.000270 -2.853325  0.002966 -0.001446  0.071383  0.000960
  0Li  5s         0.000198 -0.008566  0.049471 -0.024039  0.386738 -0.000465
  0Li  6s        -0.000067 -0.147862 -0.002179  0.001058 -0.014366  0.000148
  0Li  1pz       -0.056883  0.057965  0.042614  0.014745 -0.005529 -0.000833
  0Li  1px       -0.000160 -2.395238 -0.011495  0.005583 -0.058446  0.000717
  0Li  1py        0.055837  0.056700  0.013867 -0.042930 -0.005414 -0.000850
  0Li  2pz        0.031728  0.023868  0.123104  0.042626 -0.020698  0.000753
  0Li  2px        0.000046 -1.012963  0.042442 -0.020621  0.316204  0.000038
  0Li  2py       -0.031142  0.023348  0.040034 -0.124033 -0.020265  0.000772
  0Li  3pz       -0.013911 -0.002119 -0.037053 -0.012606  0.004019 -0.000232
  0Li  3px       -0.000022  0.094346 -0.001681  0.000816 -0.004897  0.000006
  0Li  3py        0.013654 -0.002073 -0.012226  0.037189  0.003937 -0.000237
  0Li  4pz        0.071776 -0.027508 -0.005482 -0.001867 -0.000132  0.000359
  0Li  4px        0.000309  1.129971  0.009540 -0.004635  0.067302 -0.000143
  0Li  4py       -0.070460 -0.026908 -0.001807  0.005504 -0.000128  0.000367
  0Li  1dz2       0.047763  0.565391  0.010505 -0.005951  0.081238 -0.000198
  0Li  1dxz      -0.040233  0.047609  0.029266  0.009805  0.000722 -0.000188
  0Li  1dyz       0.000002 -0.001075 -0.001260  0.000647  0.000161  0.042226
  0Li  1dx2y2     0.027452 -0.979334 -0.018998  0.008742 -0.140710  0.000327
  0Li  1dxy       0.039499  0.046570  0.009776 -0.029278  0.000702 -0.000191
  0Li  2dz2      -0.018418  0.340443 -0.012453  0.000947 -0.053847 -0.000070
  0Li  2dxz       0.009479  0.027948  0.146324  0.050314 -0.020165  0.001179
  0Li  2dyz      -0.000001 -0.000667 -0.004656  0.002388  0.000861  0.014309
  0Li  2dx2y2    -0.010623 -0.589693  0.016738 -0.011073  0.093302  0.000116
  0Li  2dxy      -0.009305  0.027339  0.047862 -0.147203 -0.019748  0.001208
  0Li  1f0        0.005662 -0.019442 -0.074511 -0.025126  0.005015  0.000043
  0Li  1f+1       0.024283  0.328924  0.000919 -0.006399  0.067153 -0.000239
  0Li  1f-1      -0.005029 -0.007707 -0.009874  0.030346  0.001916 -0.003434
  0Li  1f+2      -0.010858  0.025027  0.095893  0.032580 -0.006358  0.004216
  0Li  1f-2       0.000001 -0.001141 -0.006654  0.003413  0.000934  0.090236
  0Li  1f+3      -0.018756  0.424680  0.006227  0.001575  0.086673 -0.000281
  0Li  1f-3      -0.010925 -0.030026 -0.038972  0.117933  0.007704 -0.002608
  1H   1s        -0.000052  0.119918  0.001800 -0.000875  0.006693  0.000242
  1H   2s         0.000090 -0.680234 -0.005417  0.002633 -0.025756 -0.000344
  1H   3s         0.000026  3.546784  0.056912 -0.027651  0.384526 -0.000798
  1H   4s         0.000017  1.226841 -0.101240  0.049197 -0.814247 -0.000017
  1H   1pz       -0.006459  0.001653 -1.521530 -0.514714  0.128105 -0.007371
  1H   1px       -0.000051 -0.032691  0.151645 -0.073734  1.590583 -0.000631
  1H   1py        0.006346  0.001618 -0.504325  1.525250  0.125541 -0.007556
  1H   2pz       -0.007419 -0.007512  1.544462  0.522444 -0.130210  0.007499
  1H   2px        0.000007  0.268936 -0.156247  0.075971 -1.635897  0.000771
  1H   2py        0.007280 -0.007349  0.511950 -1.548225 -0.127604  0.007688
  1H   3pz        0.038672  0.041199 -0.790534 -0.268331  0.072039 -0.002409
  1H   3px        0.000013 -1.716255  0.061544 -0.029932  0.720695  0.000222
  1H   3py       -0.037956  0.040301 -0.261322  0.793048  0.070587 -0.002474
  1H   1dz2      -0.010821 -0.080997  0.011153 -0.017881  0.190676 -0.001500
  1H   1dxz      -0.012842 -0.008608  0.331474  0.109253 -0.006887  0.034899
  1H   1dyz      -0.000001  0.000184 -0.019071  0.009788  0.002456  1.234551
  1H   1dx2y2    -0.006294  0.140306 -0.031139  0.007954 -0.330331  0.002134
  1H   1dxy       0.012605 -0.008421  0.112121 -0.330407 -0.006780  0.035692
  1H   2dz2      -0.008112 -0.140368 -0.007344  0.008090 -0.090131  0.000899
  1H   2dxz      -0.016783 -0.010371 -0.126129 -0.040709 -0.001707 -0.019138
  1H   2dyz      -0.000002  0.000180  0.008252 -0.004235 -0.000867 -0.644022
  1H   2dx2y2    -0.004727  0.243130  0.017014 -0.005663  0.156163 -0.001314
  1H   2dxy       0.016474 -0.010145 -0.043341  0.125171 -0.001652 -0.019573
  1H   1f0       -0.192877 -0.007447  0.009424  0.004052 -0.004084 -0.001541
  1H   1f+1       0.685319  0.176970  0.003761  0.000775  0.004218 -0.000044
  1H   1f-1       0.112333 -0.004569 -0.001111  0.004022  0.000740 -0.000027
  1H   1f+2       0.293626  0.011673 -0.002387 -0.001199  0.002209  0.001224
  1H   1f-2       0.000142  0.000524 -0.000293  0.000148 -0.000654  0.019880
  1H   1f+3      -0.532680  0.228458  0.002661 -0.003306  0.005490 -0.000051
  1H   1f-3       0.326039 -0.012755  0.002229 -0.009525 -0.004482 -0.002012
                     60        61        62        63        64   
                   7.75549   7.94856   7.95055   8.25202   9.24899
                   0.00000   0.00000   0.00000   0.00000   0.00000
                  --------  --------  --------  --------  --------
  0Li  1s         0.000014  0.000961 -0.000009  0.928870  3.870816
  0Li  2s        -0.000017 -0.000294  0.000004 -1.072361 -5.371357
  0Li  3s         0.000007 -0.001898  0.000015  0.193375  2.178204
  0Li  4s         0.000009 -0.021855  0.000177 -2.306150 -0.001991
  0Li  5s         0.000018 -0.002711  0.000020  0.544254  0.787020
  0Li  6s        -0.000001 -0.001349  0.000011 -0.245548 -0.260059
  0Li  1pz       -0.000571 -0.155147  0.154509  0.040236 -0.028429
  0Li  1px        0.000004 -0.023013  0.000185 -1.645669  1.186791
  0Li  1py        0.000562 -0.154181 -0.155495  0.039357 -0.027809
  0Li  2pz        0.000059 -0.016834  0.016922  0.011662 -0.003484
  0Li  2px        0.000017 -0.010866  0.000087 -0.491440  0.146913
  0Li  2py       -0.000058 -0.016728 -0.017029  0.011408 -0.003408
  0Li  3pz       -0.000017  0.005205 -0.005181 -0.001057  0.000132
  0Li  3px       -0.000000  0.000947 -0.000008  0.045095 -0.005839
  0Li  3py        0.000017  0.005171  0.005213 -0.001034  0.000129
  0Li  4pz        0.000215  0.051381 -0.051071 -0.006077  0.004708
  0Li  4px        0.000002  0.004317 -0.000035  0.242735 -0.196533
  0Li  4py       -0.000212  0.051060  0.051396 -0.005945  0.004605
  0Li  1dz2       0.036881  0.010616 -0.007917  0.367391 -0.297863
  0Li  1dxz       0.000259 -0.193925  0.193124  0.031612 -0.024753
  0Li  1dyz       0.000008  0.009240  0.000131 -0.000748  0.000579
  0Li  1dx2y2     0.021289 -0.018131 -0.004378 -0.636372  0.515940
  0Li  1dxy      -0.000248 -0.192717 -0.194356  0.030922 -0.024213
  0Li  2dz2       0.012284  0.003548 -0.000888  0.162969 -0.057528
  0Li  2dxz       0.000409 -0.022415  0.022442  0.013388 -0.004729
  0Li  2dyz       0.000003  0.000948  0.000013 -0.000297  0.000109
  0Li  2dx2y2     0.007100 -0.006117 -0.000447 -0.282284  0.099646
  0Li  2dxy      -0.000399 -0.022273 -0.022583  0.013096 -0.004625
  0Li  1f0       -0.003977  0.075064 -0.074613 -0.009159  0.005810
  0Li  1f+1       0.071526  0.009516 -0.007065  0.150019 -0.098921
  0Li  1f-1      -0.001781  0.030366  0.030902 -0.003627  0.002310
  0Li  1f+2       0.000781 -0.096805  0.096644  0.011786 -0.007488
  0Li  1f-2       0.000017  0.009022  0.000128 -0.000518  0.000347
  0Li  1f+3      -0.055404  0.012079  0.005318  0.193693 -0.127719
  0Li  1f-3       0.003538  0.117886  0.118923 -0.014142  0.008979
  1H   1s        -0.000003  0.003473 -0.000027  0.165572 -0.035796
  1H   2s         0.000005 -0.009601  0.000076 -0.697810  0.379621
  1H   3s         0.000005  0.022061 -0.000178  2.517534 -1.716668
  1H   4s        -0.000039  0.017814 -0.000142  0.650777 -0.190534
  1H   1pz        0.000195  0.375608 -0.371272  0.015639 -0.000644
  1H   1px        0.000070 -0.009613  0.000077 -0.640792  0.014524
  1H   1py       -0.000208  0.373198  0.373568  0.015300 -0.000630
  1H   2pz       -0.000418 -0.463478  0.458763 -0.022973  0.004270
  1H   2px       -0.000074  0.009527 -0.000077  0.965266 -0.165090
  1H   2py        0.000427 -0.460512 -0.461608 -0.022475  0.004177
  1H   3pz        0.000866  0.428206 -0.424451  0.039498 -0.024376
  1H   3px        0.000038 -0.006183  0.000052 -1.695820  1.011803
  1H   3py       -0.000861  0.425490  0.427108  0.038639 -0.023845
  1H   1dz2       1.069235 -0.034444  0.039425  0.590248 -0.190611
  1H   1dxz       0.033106  0.855507 -0.851993  0.042389 -0.015330
  1H   1dyz       0.000233 -0.046278 -0.000654 -0.000042  0.000280
  1H   1dx2y2     0.617347  0.058411  0.022149 -1.022365  0.330159
  1H   1dxy      -0.032391  0.850165  0.857411  0.041469 -0.014996
  1H   2dz2      -0.557266  0.019387 -0.023901 -0.457313  0.260917
  1H   2dxz      -0.017395 -0.522717  0.520169 -0.034264  0.021411
  1H   2dyz      -0.000122  0.026751  0.000378  0.000292 -0.000458
  1H   2dx2y2    -0.321753 -0.032818 -0.013456  0.792112 -0.451941
  1H   2dxy       0.017021 -0.519454 -0.523478 -0.033519  0.020944
  1H   1f0       -0.000759 -0.024051  0.023126 -0.004214  0.004573
  1H   1f+1       0.014933  0.000111  0.002593  0.073384 -0.076483
  1H   1f-1      -0.000080 -0.008312 -0.008289 -0.002406  0.001889
  1H   1f+2       0.000486  0.029201 -0.028323  0.006377 -0.005985
  1H   1f-2       0.000004  0.001433  0.000022 -0.000490  0.000301
  1H   1f+3      -0.011578  0.000224 -0.002013  0.094746 -0.098749
  1H   1f-3       0.000881 -0.036670 -0.035857 -0.007078  0.007122
--------------
SCF ITERATIONS
--------------
               ***  Starting incremental Fock matrix formation  ***

  HOMO=   1 E= -6.842 eV LUMO=  6.629 eV gap=  13.471 eV

                         ----------------------------
                         !        ITERATION     0   !
                         ----------------------------
   Total Energy        :      -7.959984229181 Eh
   Energy Change       :      -7.959984229181 Eh
   MAX-DP              :       0.018462139718
   RMS-DP              :       0.000735988840
   Actual Damping      :       0.7000
   Actual Level Shift  :       0.2500 Eh


  HOMO=   1 E= -7.125 eV LUMO=  6.643 eV gap=  13.768 eV

                         ----------------------------
                         !        ITERATION     1   !
                         ----------------------------
   Total Energy        :      -7.966634017611 Eh
   Energy Change       :      -0.006649788429 Eh
   MAX-DP              :       0.015234330514
   RMS-DP              :       0.000648125516
   Actual Damping      :       0.7000
   Actual Level Shift  :       0.2500 Eh

                               ***Turning on DIIS***

  HOMO=   1 E= -7.352 eV LUMO=  6.654 eV gap=  14.006 eV

                         ----------------------------
                         !        ITERATION     2   !
                         ----------------------------
   Total Energy        :      -7.972015689918 Eh
   Energy Change       :      -0.005381672307 Eh
   MAX-DP              :       0.037811615866
   RMS-DP              :       0.001676158761
   Actual Damping      :       0.0000
   Actual Level Shift  :       0.2500 Eh
   DIIS-Error          :       0.091365099356


  HOMO=   1 E= -8.041 eV LUMO=  6.684 eV gap=  14.725 eV

                         ----------------------------
                         !        ITERATION     3   !
                         ----------------------------
   Total Energy        :      -7.988578989287 Eh
   Energy Change       :      -0.016563299369 Eh
   MAX-DP              :       0.007343572078
   RMS-DP              :       0.000275728038
   Actual Damping      :       0.0000
   Actual Level Shift  :       0.2500 Eh
   DIIS-Error          :       0.015080391328
   DIIS coefficients:
     -0.14574   1.14574


  HOMO=   1 E= -8.102 eV LUMO=  6.687 eV gap=  14.789 eV

                         ----------------------------
                         !        ITERATION     4   !
                         ----------------------------
   Total Energy        :      -7.989069618446 Eh
   Energy Change       :      -0.000490629159 Eh
   MAX-DP              :       0.004318326442
   RMS-DP              :       0.000164928600
   Actual Damping      :       0.0000
   Actual Level Shift  :       0.2500 Eh
   DIIS-Error          :       0.007796721428
   DIIS coefficients:
      0.02458  -0.73450   1.70992


  HOMO=   1 E= -8.132 eV LUMO=  6.690 eV gap=  14.822 eV

                         ----------------------------
                         !        ITERATION     5   !
                         ----------------------------
   Total Energy        :      -7.988804848254 Eh
   Energy Change       :       0.000264770192 Eh
   MAX-DP              :       0.002616695429
   RMS-DP              :       0.000121525930
   Actual Damping      :       0.0000
   Actual Level Shift  :       0.2500 Eh
   DIIS-Error          :       0.004342743906
   DIIS coefficients:
      0.01219  -0.11383  -0.66432   1.76596

                      *** Initiating the SOSCF procedure ***
                           *** Shutting down DIIS ***
                      *** Re-Reading the Fockian *** 
                      *** Removing any level shift *** 

  HOMO=   1 E= -8.141 eV LUMO= -0.110 eV gap=   8.030 eV

                         ----------------------------
                         !        ITERATION     6   !
                         ----------------------------
   Total Energy        :      -7.988057277319 Eh
   Energy Change       :       0.000747570935 Eh
   MAX-DP              :       0.002200306808
   RMS-DP              :       0.000077551684
   Orbital gradient    :       0.001825999093
   Orbital Rotation    :       0.001825999093
   Actual Damping      :       0.0000

               *** Restarting incremental Fock matrix formation ***

  HOMO=   1 E= -8.141 eV LUMO= -0.110 eV gap=   8.030 eV

                         ----------------------------
                         !        ITERATION     7   !
                         ----------------------------
   Total Energy        :      -7.986994617179 Eh
   Energy Change       :       0.001062660140 Eh
   MAX-DP              :       0.000800782031
   RMS-DP              :       0.000038189291
   Orbital gradient    :       0.000676651247
   Orbital Rotation    :       0.002292900549
   Actual Damping      :       0.0000


  HOMO=   1 E= -8.141 eV LUMO= -0.110 eV gap=   8.030 eV

                         ----------------------------
                         !        ITERATION     8   !
                         ----------------------------
   Total Energy        :      -7.987000303168 Eh
   Energy Change       :      -0.000005685990 Eh
   MAX-DP              :       0.000586060404
   RMS-DP              :       0.000031398810
   Orbital gradient    :       0.000311687931
   Orbital Rotation    :       0.002068998327
   Actual Damping      :       0.0000


  HOMO=   1 E= -8.141 eV LUMO= -0.110 eV gap=   8.030 eV

                         ----------------------------
                         !        ITERATION     9   !
                         ----------------------------
   Total Energy        :      -7.987002060638 Eh
   Energy Change       :      -0.000001757470 Eh
   MAX-DP              :       0.000067919883
   RMS-DP              :       0.000003687175
   Orbital gradient    :       0.000036964855
   Orbital Rotation    :       0.000070582676
   Actual Damping      :       0.0000

                 **** Energy Check signals convergence ****
              ***Rediagonalizing the Fockian in SOSCF/NRSCF***

               *****************************************************
               *                     SUCCESS                       *
               *           SCF CONVERGED AFTER  10 CYCLES          *
               *****************************************************


----------------
TOTAL SCF ENERGY
----------------

Total Energy       :           -7.98700208 Eh            -217.33738 eV

Components:
Nuclear Repulsion  :            0.96940679 Eh              26.37890 eV
Electronic Energy  :           -8.95640887 Eh            -243.71628 eV

One Electron Energy:          -12.41557896 Eh            -337.84508 eV
Two Electron Energy:            3.45917009 Eh              94.12880 eV

Virial components:
Potential Energy   :          -15.96155211 Eh            -434.33591 eV
Kinetic Energy     :            7.97455003 Eh             216.99854 eV
Virial Ratio       :            2.00156147


---------------
SCF CONVERGENCE
---------------

  Last Energy change         ...   -1.9274e-08  Tolerance :   1.0000e-06
  Last MAX-Density change    ...    4.8142e-05  Tolerance :   1.0000e-05
  Last RMS-Density change    ...    1.9900e-06  Tolerance :   1.0000e-06
  Last Orbital Gradient      ...    9.7689e-06  Tolerance :   5.0000e-05
  Last Orbital Rotation      ...    3.8537e-05  Tolerance :   5.0000e-05

             **** THE GBW FILE WAS UPDATED (6_LiH_opt_QZ.gbw) ****
             **** DENSITY FILE WAS UPDATED (6_LiH_opt_QZ.scfp.tmp) ****
             **** ENERGY FILE WAS UPDATED (6_LiH_opt_QZ.en.tmp) ****
----------------
ORBITAL ENERGIES
----------------

  NO   OCC          E(Eh)            E(eV) 
   0   2.0000      -2.449394       -66.6514 
   1   2.0000      -0.299234        -8.1426 
   2   0.0000      -0.003977        -0.1082 
   3   0.0000       0.034468         0.9379 
   4   0.0000       0.034468         0.9379 
[...]
 0 Li f+3             0.1       0.0       0.0       0.2       0.3       0.0
 1 H  s               1.1       0.0       0.0       1.9       0.0       0.0
 1 H  pz              0.0       0.8       0.8       0.0       0.0       0.0
 1 H  px              0.1       0.0       0.0       1.6       0.0       0.0
 1 H  py              0.0       0.8       0.8       0.0       0.0       0.0

                     12        13        14        15        16        17   
                   0.22611   0.22611   0.30644   0.32018   0.36257   0.45794
                   0.00000   0.00000   0.00000   0.00000   0.00000   0.00000
                  --------  --------  --------  --------  --------  --------
 0 Li s               0.0       0.0      39.3      49.6       0.8       0.0
 0 Li pz              1.6       2.2       0.0       0.0       0.0      48.1
 0 Li px              0.0       0.0      15.4      23.6      33.6       0.1
 0 Li py              2.2       1.6       0.0       0.0       0.0      48.9
 0 Li dz2             0.1       0.1       4.2       0.7       0.6       0.0
 0 Li dxz            38.7      52.5       0.0       0.0       0.0       0.5
 0 Li dyz             0.0       0.1       0.0       0.0       0.0       0.0
 0 Li dx2y2           0.0       0.2      12.6       2.0       1.8       0.0
 0 Li dxy            52.6      38.5       0.0       0.0       0.0       0.5
 0 Li f0              0.2       0.2       0.0       0.0       0.0       0.0
 0 Li f+1             0.0       0.0       7.5       1.6       0.9       0.0
 0 Li f+2             0.3       0.3       0.0       0.0       0.0       0.0
 0 Li f+3             0.0       0.0      12.5       2.7       1.5       0.0
 0 Li f-3             0.5       0.4       0.1       0.0       0.0       0.0
 1 H  s               0.0       0.0       7.4      13.2      51.5       0.0
 1 H  pz              1.6       2.2       0.0       0.0       0.0       0.4
 1 H  px              0.0       0.0       0.2       6.5       9.2       0.0
 1 H  py              2.2       1.6       0.0       0.0       0.0       0.4
 1 H  dz2             0.0       0.0       0.2       0.0       0.0       0.0
 1 H  dxz             0.0       0.0       0.0       0.0       0.0       0.4
 1 H  dx2y2           0.0       0.0       0.5       0.0       0.0       0.0
 1 H  dxy             0.0       0.0       0.0       0.0       0.0       0.4

                     18        19        20        21        22        23   
                   0.45794   0.51749   0.54480   0.54480   0.56041   0.56041
                   0.00000   0.00000   0.00000   0.00000   0.00000   0.00000
                  --------  --------  --------  --------  --------  --------
 0 Li s               0.0       3.5       0.0       0.0       0.0       0.0
 0 Li pz             49.0       0.0       0.0       0.0       0.0       0.0
 0 Li px              0.0      18.6       0.0       0.0       0.0       0.0
 0 Li py             48.2       0.0       0.0       0.0       0.0       0.0
 0 Li dz2             0.0       5.7       0.0       0.0       0.0       0.0
 0 Li dxz             0.5       0.0       0.4       0.4       0.0       0.0
 0 Li dx2y2           0.0      17.2       0.0       0.0       0.0       0.0
 0 Li dxy             0.5       0.0       0.4       0.4       0.0       0.0
 0 Li f0              0.0       0.0      17.7      18.0      51.7      10.6
 0 Li f+1             0.0       7.4       0.2       0.2       0.1       0.0
 0 Li f-1             0.0       0.0       3.0       3.0      15.9      77.6
 0 Li f+2             0.0       0.0      29.3      30.1      31.1       6.3
 0 Li f-2             0.0       0.0       0.3       0.0       0.0       0.1
 0 Li f+3             0.0      12.4       0.4       0.1       0.1       0.0
 0 Li f-3             0.0       0.1      44.9      44.3       1.0       5.2
 1 H  s               0.0      21.3       0.0       0.0       0.0       0.0
 1 H  pz              0.4       0.0       1.7       1.7       0.0       0.0
 1 H  px              0.0      13.3       0.0       0.0       0.0       0.0
 1 H  py              0.4       0.0       1.7       1.7       0.0       0.0
 1 H  dxz             0.4       0.0       0.0       0.0       0.0       0.0
 1 H  dx2y2           0.0       0.3       0.0       0.0       0.0       0.0
 1 H  dxy             0.4       0.0       0.0       0.0       0.0       0.0

                     24        25        26        27        28        29   
                   0.56763   0.56763   0.69312   0.78218   0.78218   0.82333
                   0.00000   0.00000   0.00000   0.00000   0.00000   0.00000
                  --------  --------  --------  --------  --------  --------
 0 Li s               0.0       0.0       4.9       0.0       0.0       0.0
 0 Li pz              0.0       0.0       0.0       0.2       0.2       0.0
 0 Li px              0.0       0.0       6.2       0.0       0.0       0.0
 0 Li py              0.0       0.0       0.0       0.2       0.2       0.0
 0 Li dz2             0.1       0.6       5.0       0.1       0.1       0.1
 0 Li dxz             0.0       0.0       0.0      35.3      36.3       0.1
 0 Li dyz             0.8       0.2       0.0       0.1       0.0      99.1
 0 Li dx2y2           0.0       0.2      15.0       0.2       0.0       0.0
 0 Li dxy             0.0       0.0       0.0      36.1      35.4       0.1
 0 Li f0              0.0       0.2       0.1       0.0       0.0       0.0
 0 Li f+1            10.4      50.6      17.9       0.0       0.0       0.0
 0 Li f-1             0.2       0.0       0.0       0.0       0.0       0.0
 0 Li f+2             0.2       0.0       0.1       0.0       0.0       0.0
 0 Li f-2            80.9      16.8       0.0       0.0       0.0       0.3
 0 Li f+3             6.4      30.3      29.9       0.0       0.0       0.0
 0 Li f-3             0.0       0.3       0.1       0.1       0.1       0.0
 1 H  s               0.0       0.0      12.4       0.0       0.0       0.0
 1 H  pz              0.0       0.0       0.0      13.3      13.7       0.0
 1 H  px              0.0       0.0       7.9       0.0       0.0       0.0
 1 H  py              0.0       0.0       0.0      13.6      13.3       0.0
 1 H  dz2             0.1       0.5       0.1       0.0       0.0       0.0
 1 H  dxz             0.0       0.0       0.0       0.4       0.4       0.0
 1 H  dyz             0.7       0.1       0.0       0.0       0.0       0.4
 1 H  dx2y2           0.0       0.2       0.2       0.0       0.0       0.0
 1 H  dxy             0.0       0.0       0.0       0.4       0.4       0.0

                     30        31        32        33        34        35   
                   0.82333   0.96317   1.07287   1.07287   1.31717   1.49237
                   0.00000   0.00000   0.00000   0.00000   0.00000   0.00000
                  --------  --------  --------  --------  --------  --------
 0 Li s               0.0       0.7       0.0       0.0      24.3      32.1
 0 Li pz              0.0       0.0       1.7       1.7       0.0       0.0
 0 Li px              0.0       0.3       0.0       0.0      19.6       1.4
 0 Li py              0.0       0.0       1.7       1.7       0.0       0.0
 0 Li dz2            74.3      11.0       0.0       0.0       3.2       0.4
 0 Li dxz             0.1       0.1      12.8      12.8       0.0       0.0
 0 Li dyz             0.1       0.0       0.0       0.0       0.0       0.0
 0 Li dx2y2          24.8      33.1       0.1       0.0       9.6       1.1
 0 Li dxy             0.1       0.1      12.7      12.8       0.0       0.0
 0 Li f0              0.0       0.0       0.5       0.5       0.0       0.0
 0 Li f+1             0.2       0.3       0.0       0.0       0.1       0.7
 0 Li f+2             0.0       0.0       0.9       0.9       0.0       0.0
 0 Li f+3             0.1       0.6       0.0       0.0       0.2       1.2
 0 Li f-3             0.0       0.0       1.4       1.4       0.0       0.0
 1 H  s               0.0      16.0       0.0       0.0      20.6      60.5
 1 H  pz              0.0       0.0      30.5      30.4       0.0       0.0
 1 H  px              0.0      37.7       0.1       0.0      13.3       0.5
 1 H  py              0.0       0.0      30.4      30.6       0.0       0.0
 1 H  dz2             0.3       0.0       0.0       0.0       2.2       0.6
 1 H  dxz             0.0       0.0       3.5       3.5       0.0       0.0
 1 H  dx2y2           0.1       0.0       0.0       0.0       6.6       1.7
 1 H  dxy             0.0       0.0       3.5       3.5       0.0       0.0

                     36        37        38        39        40        41   
                   1.60739   2.32575   2.32575   2.43695   2.43695   2.66997
                   0.00000   0.00000   0.00000   0.00000   0.00000   0.00000
                  --------  --------  --------  --------  --------  --------
 0 Li s              46.4       0.0       0.0       0.0       0.0       5.2
 0 Li pz              0.0       0.0       0.0       0.7       0.7       0.0
 0 Li px              2.0       0.0       0.0       0.0       0.0       4.7
 0 Li py              0.0       0.0       0.0       0.7       0.7       0.0
 0 Li dz2             0.1       0.2       0.1       0.0       0.0       0.4
 0 Li dxz             0.0       0.0       0.0       1.6       1.7       0.0
 0 Li dyz             0.0       0.2       0.2       0.0       0.0       0.0
 0 Li dx2y2           0.3       0.1       0.0       0.0       0.0       1.1
 0 Li dxy             0.0       0.0       0.0       1.7       1.6       0.0
 0 Li f+1             0.2       0.3       0.2       0.0       0.0       0.0
 0 Li f-2             0.0       0.4       0.5       0.0       0.0       0.0
 0 Li f+3             0.3       0.2       0.1       0.0       0.0       0.0
 1 H  s              12.6       0.0       0.0       0.0       0.0       5.2
 1 H  pz              0.0       0.0       0.0      10.1      10.7       0.0
 1 H  px              4.7       0.0       0.0       0.0       0.0      63.6
 1 H  py              0.0       0.0       0.0      10.7      10.1       0.0
 1 H  dz2             8.2      41.2      32.8       0.1       0.1       4.9
 1 H  dxz             0.1       0.0       0.1      36.0      38.1       0.0
 1 H  dyz             0.0      43.8      54.8       0.1       0.0       0.0
 1 H  dx2y2          24.6      13.7      11.0       0.2       0.0      14.6
 1 H  dxy             0.1       0.1       0.0      38.0      36.1       0.0
 1 H  f+1             0.2       0.0       0.0       0.0       0.0       0.1
 1 H  f+3             0.3       0.0       0.0       0.0       0.0       0.1

                     42        43        44        45        46        47   
                   2.85151   2.85151   3.20239   5.70240   6.04039   6.04039
                   0.00000   0.00000   0.00000   0.00000   0.00000   0.00000
                  --------  --------  --------  --------  --------  --------
 0 Li s               0.0       0.0       7.2       0.1       0.0       0.0
 0 Li pz              0.4       0.4       0.0       0.0      45.3      45.2
 0 Li px              0.0       0.0       7.9       0.2       0.1       0.0
 0 Li py              0.4       0.4       0.0       0.0      45.2      45.3
 0 Li dxz             0.3       0.3       0.0       0.0       0.0       0.0
 0 Li dxy             0.3       0.3       0.0       0.0       0.0       0.0
 1 H  s               0.0       0.0       6.4      98.0       0.0       0.0
 1 H  pz             39.7      41.4       0.0       0.0       0.1       0.1
 1 H  px              0.1       0.0      38.7       0.1       0.0       0.0
 1 H  py             41.3      39.8       0.0       0.0       0.1       0.1
 1 H  dz2             0.0       0.0       9.5       0.1       0.0       0.0
 1 H  dxz             8.5       8.9       0.1       0.0       0.1       0.1
 1 H  dx2y2           0.0       0.0      28.5       0.3       0.0       0.0
 1 H  dxy             8.9       8.6       0.1       0.0       0.1       0.1
 1 H  f0              0.0       0.0       0.0       0.0       1.7       1.7
 1 H  f+1             0.0       0.0       0.6       0.4       0.0       0.0
 1 H  f-1             0.0       0.0       0.0       0.0       0.3       0.3
 1 H  f+2             0.0       0.0       0.0       0.0       2.8       2.8
 1 H  f+3             0.0       0.0       0.9       0.7       0.0       0.0
 1 H  f-3             0.0       0.0       0.0       0.0       4.2       4.3

                     48        49        50        51        52        53   
                   6.23225   6.23225   6.23286   6.23286   6.26026   6.26026
                   0.00000   0.00000   0.00000   0.00000   0.00000   0.00000
                  --------  --------  --------  --------  --------  --------
 0 Li pz              0.0       0.0       0.0       0.0       4.4       4.6
 0 Li py              0.0       0.0       0.0       0.0       4.6       4.4
 1 H  dxz             0.0       0.0       0.0       0.0       0.2       0.2
 1 H  dxy             0.0       0.0       0.0       0.0       0.2       0.2
 1 H  f0              7.4      55.0       0.2       0.0      16.5      17.2
 1 H  f+1             0.0       0.1      59.5       2.7       0.2       0.2
 1 H  f-1            82.5      11.1       0.0       0.2       2.8       2.8
 1 H  f+2             4.4      33.0       0.0       0.2      27.4      28.8
 1 H  f-2             0.1       0.0       4.3      95.1       0.3       0.0
 1 H  f+3             0.0       0.1      35.6       1.7       0.4       0.1
 1 H  f-3             5.5       0.7       0.2       0.0      42.8      41.4

                     54        55        56        57        58        59   
                   6.27354   6.89667   8.13307   8.13307   8.17950   8.38959
                   0.00000   0.00000   0.00000   0.00000   0.00000   0.00000
                  --------  --------  --------  --------  --------  --------
 0 Li s               0.5       2.9       0.0       0.0       0.6       0.0
 0 Li px              7.3      80.8       0.0       0.0       0.2       0.0
 0 Li dz2             0.0       0.2       0.0       0.0       0.0       0.0
 0 Li dx2y2           0.0       0.6       0.0       0.0       0.0       0.0
 1 H  s               0.8       4.5       0.0       0.0       0.3       0.0
 1 H  pz              0.0       0.0      44.0      45.8       0.1       0.0
 1 H  px              0.3       0.7       0.1       0.0      89.0       0.0
 1 H  py              0.0       0.0      45.8      44.0       0.0       0.0
 1 H  dz2             0.1       1.3       0.0       0.0       2.4      74.5
 1 H  dxz             0.0       0.0       4.9       5.2       0.0       0.1
 1 H  dyz             0.0       0.0       0.0       0.0       0.0       0.5
 1 H  dx2y2           0.4       3.9       0.0       0.0       7.3      24.9
 1 H  dxy             0.0       0.0       5.1       4.9       0.0       0.0
 1 H  f0              0.1       0.0       0.0       0.0       0.0       0.0
 1 H  f+1            33.7       1.8       0.0       0.0       0.0       0.0
 1 H  f+2             0.2       0.0       0.0       0.0       0.0       0.0
 1 H  f+3            56.2       3.1       0.0       0.0       0.0       0.0
 1 H  f-3             0.3       0.0       0.0       0.0       0.0       0.0

                     60        61        62        63        64   
                   8.38959   8.57156   8.57156   8.89956  10.01258
                   0.00000   0.00000   0.00000   0.00000   0.00000
                  --------  --------  --------  --------  --------
 0 Li s               0.0       0.0       0.0       6.1      93.7
 0 Li pz              0.0       0.2       0.2       0.0       0.0
 0 Li px              0.0       0.0       0.0       2.2       1.2
 0 Li py              0.0       0.2       0.2       0.0       0.0
 0 Li dx2y2           0.0       0.0       0.0       0.1       0.1
 1 H  s               0.0       0.0       0.0       2.2       0.8
 1 H  pz              0.0       5.0       5.3       0.0       0.0
 1 H  px              0.0       0.0       0.0      11.4       0.2
 1 H  py              0.0       5.3       5.0       0.0       0.0
 1 H  dz2             0.3       0.1       0.1      19.3       0.9
 1 H  dxz             0.0      43.2      45.5       0.1       0.0
 1 H  dyz            99.4       0.1       0.0       0.0       0.0
 1 H  dx2y2           0.1       0.2       0.0      57.8       2.8
 1 H  dxy             0.1      45.4      43.3       0.1       0.0
 1 H  f+1             0.0       0.0       0.0       0.2       0.1
 1 H  f+3             0.0       0.0       0.0       0.4       0.2


                      *****************************
                      * MAYER POPULATION ANALYSIS *
                      *****************************

  NA   - Mulliken gross atomic population
  ZA   - Total nuclear charge
  QA   - Mulliken gross atomic charge
  VA   - Mayer's total valence
  BVA  - Mayer's bonded valence
  FA   - Mayer's free valence

  ATOM       NA         ZA         QA         VA         BVA        FA
  0 Li     2.6840     3.0000     0.3160     0.9188     0.9188     0.0000
  1 H      1.3160     1.0000    -0.3160     0.9188     0.9188     0.0000

  Mayer bond orders larger than 0.1
B(  0-Li,  1-H ) :   0.9188 

Environment variable NBOEXE for nbo6.exe or nbo5.exe not set! Skipping NBO-Analysis

-------
TIMINGS
-------

Total SCF time: 0 days 0 hours 0 min 5 sec 

Total time                  ....       5.544 sec
Sum of individual times     ....       5.736 sec  (103.5%)

Fock matrix formation       ....       5.340 sec  ( 96.3%)
Diagonalization             ....       0.019 sec  (  0.3%)
Density matrix formation    ....       0.001 sec  (  0.0%)
Population analysis         ....       0.075 sec  (  1.4%)
Initial guess               ....       0.201 sec  (  3.6%)
Orbital Transformation      ....       0.000 sec  (  0.0%)
Orbital Orthonormalization  ....       0.000 sec  (  0.0%)
DIIS solution               ....       0.008 sec  (  0.1%)
SOSCF solution              ....       0.072 sec  (  1.3%)

-------------------------   --------------------
FINAL SINGLE POINT ENERGY        -7.987002079912
-------------------------   --------------------


                            ***************************************
                            *     ORCA property calculations      *
                            ***************************************

                                    ---------------------
                                    Active property flags
                                    ---------------------
   (+) Dipole Moment


------------------------------------------------------------------------------
                       ORCA ELECTRIC PROPERTIES CALCULATION
------------------------------------------------------------------------------

Dipole Moment Calculation                       ... on
Quadrupole Moment Calculation                   ... off
Polarizability Calculation                      ... off
GBWName                                         ... 6_LiH_opt_QZ.gbw
Electron density file                           ... 6_LiH_opt_QZ.scfp.tmp

-------------
DIPOLE MOMENT
-------------
                                X             Y             Z
Electronic contribution:     -3.92140       0.09182       0.09387
Nuclear contribution   :      1.52410      -0.03569      -0.03648
                        -----------------------------------------
Total Dipole Moment    :     -2.39730       0.05614       0.05739
                        -----------------------------------------
Magnitude (a.u.)       :      2.39864
Magnitude (Debye)      :      6.09687


Timings for individual modules:

Sum of individual times         ...        7.452 sec (=   0.124 min)
GTO integral calculation        ...        1.007 sec (=   0.017 min)  13.5 %
SCF iterations                  ...        6.445 sec (=   0.107 min)  86.5 %
                             ****ORCA TERMINATED NORMALLY****
TOTAL RUN TIME: 0 days 0 hours 0 minutes 8 seconds 204 msec
