
                                 *****************
                                 * O   R   C   A *
                                 *****************

           --- An Ab Initio, DFT and Semiempirical electronic structure package ---

                  #######################################################
                  #                        -***-                        #
                  #  Department of molecular theory and spectroscopy    #
                  #              Directorship: Frank Neese              #
                  # Max Planck Institute for Chemical Energy Conversion #
                  #                  D-45470 Muelheim/Ruhr              #
                  #                       Germany                       #
                  #                                                     #
                  #                  All rights reserved                #
                  #                        -***-                        #
                  #######################################################


                         Program Version 3.0.2 -  RELEASE  -


 With contributions from (in alphabetic order):
   Ute Becker             : Parallelization
   Dmytro Bykov           : SCF Hessian
   Dmitry Ganyushin       : Spin-Orbit,Spin-Spin,Magnetic field MRCI
   Andreas Hansen         : Spin unrestricted coupled pair/coupled cluster methods
   Dimitrios Liakos       : Extrapolation schemes; parallel MDCI
   Robert Izsak           : Overlap fitted RIJCOSX, COSX-SCS-MP3
   Christian Kollmar      : KDIIS, OOCD, Brueckner-CCSD(T), CCSD density
   Simone Kossmann        : Meta GGA functionals, TD-DFT gradient, OOMP2, MP2 Hessian
   Taras Petrenko         : DFT Hessian,TD-DFT gradient, ASA and ECA modules, normal mode analysis, Resonance Raman, ABS, FL, XAS/XES, NRVS
   Christoph Reimann      : Effective Core Potentials
   Michael Roemelt        : Restricted open shell CIS
   Christoph Riplinger    : Improved optimizer, TS searches, QM/MM, DLPNO-CCSD
   Barbara Sandhoefer     : DKH picture change effects
   Igor Schapiro          : Molecular dynamics
   Kantharuban Sivalingam : CASSCF convergence, NEVPT2
   Boris Wezisla          : Elementary symmetry handling
   Frank Wennmohs         : Technical directorship


 We gratefully acknowledge several colleagues who have allowed us to
 interface, adapt or use parts of their codes:
   Stefan Grimme, W. Hujo, H. Kruse, T. Risthaus : VdW corrections, initial TS optimization,
                                                   DFT functionals, gCP
   Ed Valeev                                     : LibInt (2-el integral package), F12 methods
   Garnet Chan, S. Sharma, R. Olivares           : DMRG
   Ulf Ekstrom                                   : XCFun DFT Library
   Mihaly Kallay                                 : mrcc  (arbitrary order and MRCC methods)
   Andreas Klamt, Michael Diedenhofen            : otool_cosmo (COSMO solvation model)
   Frank Weinhold                                : gennbo (NPA and NBO analysis)
   Christopher J. Cramer and Donald G. Truhlar   : smd solvation model


 Your calculation uses the libint2 library for the computation of 2-el integrals
 For citations please refer to: http://libint.valeyev.net

 This ORCA versions uses:
   CBLAS   interface :  Fast vector & matrix operations
   LAPACKE interface :  Fast linear algebra routines
   SCALAPACK package :  Parallel linear algebra routines


Your calculation utilizes the basis: Ahlrichs-DZ
Cite in your paper:
The Ahlrichs DZ basis set was obtained from the TurboMole 
basis set library under ftp.chemie.uni-karlsruhe.de/pub/basen

================================================================================
                                        WARNINGS
                       Please study these warnings very carefully!
================================================================================
Now building the actual basis set

WARNING: Geometry Optimization
  ===> : Switching off AutoStart
         For restart on a previous wavefunction, please use MOREAD


INFO   : the flag for use of LIBINT has been found!

================================================================================
                                       INPUT FILE
================================================================================
NAME = 7_CH4_geomopt.inp
|  1> ! RHF DZ LARGEPRINT PRINTBASIS PRINTGAP ALLPOP Opt AnFreq NumFreq bohrs
|  2> 
|  3> * xyz 0 1 
|  4> C       -0.5596525601     -0.0428051827     -0.0000000929                 
|  5> H       -0.9294543768     -1.0597015995      0.2448233811                 
|  6> H       -0.9294533829      0.6776673958      0.7582457726                 
|  7> H       -0.9294507939      0.2536197353     -1.0030712327                 
|  8> H        0.5497482590     -0.0428064112      0.0000017434                 
|  9> *
| 10> 
| 11>                          ****END OF INPUT****
================================================================================

                       *****************************
                       * Geometry Optimization Run *
                       *****************************

Geometry optimization settings:
Update method            Update   .... BFGS
Choice of coordinates    CoordSys .... Redundant Internals
Initial Hessian          InHess   .... Almoef's Model

Convergence Tolerances:
Energy Change            TolE     ....  5.0000e-06 Eh
Max. Gradient            TolMAXG  ....  3.0000e-04 Eh/bohr
RMS Gradient             TolRMSG  ....  1.0000e-04 Eh/bohr
Max. Displacement        TolMAXD  ....  4.0000e-03 bohr
RMS Displacement         TolRMSD  ....  2.0000e-03 bohr

------------------------------------------------------------------------------
                        ORCA OPTIMIZATION COORDINATE SETUP
------------------------------------------------------------------------------

The optimization will be done in new redundant internal coordinates
Making redundant internal coordinates   ...  (new redundants) done
Evaluating the initial hessian          ...  (Almloef) done
Evaluating the coordinates              ...  done
Calculating the B-matrix                .... done
Calculating the G-matrix                .... done
Diagonalizing the G-matrix              .... done
The first mode is                       ....    1
The number of degrees of freedom        ....    9

    -----------------------------------------------------------------
                    Redundant Internal Coordinates


    -----------------------------------------------------------------
         Definition                    Initial Value    Approx d2E/dq
    -----------------------------------------------------------------
      1. B(H   1,C   0)                  0.5871         2.284633   
      2. B(H   2,C   0)                  0.5871         2.284633   
      3. B(H   3,C   0)                  0.5871         2.284633   
      4. B(H   4,C   0)                  0.5871         2.284633   
      5. A(H   1,C   0,H   3)          109.4712         0.554832   
      6. A(H   2,C   0,H   3)          109.4712         0.554832   
      7. A(H   1,C   0,H   4)          109.4712         0.554832   
      8. A(H   2,C   0,H   4)          109.4712         0.554832   
      9. A(H   3,C   0,H   4)          109.4712         0.554832   
     10. A(H   1,C   0,H   2)          109.4712         0.554832   
    -----------------------------------------------------------------

Number of atoms                         .... 5
Number of degrees of freedom            .... 10

         *************************************************************
         *                GEOMETRY OPTIMIZATION CYCLE   1            *
         *************************************************************
---------------------------------
CARTESIAN COORDINATES (ANGSTROEM)
---------------------------------
  C     -0.296155   -0.022652   -0.000000
  H     -0.491846   -0.560770    0.129555
  H     -0.491846    0.358606    0.401246
  H     -0.491844    0.134210   -0.530802
  H      0.290914   -0.022652    0.000001

----------------------------
CARTESIAN COORDINATES (A.U.)
----------------------------
  NO LB      ZA    FRAG    MASS        X           Y           Z
   0 C     6.0000    0    12.011         -0.559652560100000         -0.042805182700000         -0.000000092900000
   1 H     1.0000    0     1.008         -0.929454376800000         -1.059701599500000          0.244823381100000
   2 H     1.0000    0     1.008         -0.929453382900000          0.677667395800000          0.758245772600000
   3 H     1.0000    0     1.008         -0.929450793900000          0.253619735300000         -1.003071232700000
   4 H     1.0000    0     1.008          0.549748259000000         -0.042806411200000          0.000001743400000

--------------------------------
INTERNAL COORDINATES (ANGSTROEM)
--------------------------------
 C      0   0   0   0.000000     0.000     0.000
 H      1   0   0   0.587070     0.000     0.000
 H      1   2   0   0.587070   109.471     0.000
 H      1   2   3   0.587070   109.471   240.000
 H      1   2   3   0.587070   109.471   120.000

---------------------------
INTERNAL COORDINATES (A.U.)
---------------------------
 C      0   0   0   0.000000     0.000     0.000
 H      1   0   0   1.109401     0.000     0.000
 H      1   2   0   1.109401   109.471     0.000
 H      1   2   3   1.109401   109.471   240.000
 H      1   2   3   1.109401   109.471   120.000

---------------------
BASIS SET INFORMATION
---------------------
There are 2 groups of distinct atoms

 Group   1 Type C   : 8s4p contracted to 4s2p pattern {5111/31}
 Group   2 Type H   : 4s contracted to 2s pattern {31}

Atom   0C    basis set group =>   1
Atom   1H    basis set group =>   2
Atom   2H    basis set group =>   2
Atom   3H    basis set group =>   2
Atom   4H    basis set group =>   2

-------------------------
BASIS SET IN INPUT FORMAT
-------------------------

 # Basis set for element : H 
 NewGTO H 
 S 3 
   1      13.0107010000      0.0334854848
   2       1.9622572000      0.2347218709
   3       0.4445379600      0.8137702853
 S 1 
   1       0.1219496200      1.0000000000
  end;

 # Basis set for element : C 
 NewGTO C 
 S 5 
   1    3623.8613000000      0.0022633312
   2     544.0462100000      0.0173452633
   3     123.7433800000      0.0860412011
   4      34.7632090000      0.3022227208
   5      10.9333330000      0.6898436475
 S 1 
   1       3.5744765000      1.0000000000
 S 1 
   1       0.5748324500      1.0000000000
 S 1 
   1       0.1730364000      1.0000000000
 P 3 
   1       9.4432819000      0.0570590790
   2       2.0017986000      0.3134587330
   3       0.5462971800      0.7599881644
 P 1 
   1       0.1520268400      1.0000000000
  end;

------------------------------------------------------------------------------
                           ORCA GTO INTEGRAL CALCULATION
------------------------------------------------------------------------------

                         BASIS SET STATISTICS AND STARTUP INFO

 # of primitive gaussian shells          ...   28
 # of primitive gaussian functions       ...   36
 # of contracted shell                   ...   14
 # of contracted basis functions         ...   18
 Highest angular momentum                ...    1
 Maximum contraction depth               ...    5
 Integral package used                   ... LIBINT
 Integral threshhold            Thresh   ...  2.500e-11
 Primitive cut-off              TCut     ...  2.500e-12


                              INTEGRAL EVALUATION

 One electron integrals                  ... done
 Pre-screening matrix                    ... done
 Shell pair data                         ... done (   0.000 sec)

-------------------------------------------------------------------------------
                                 ORCA SCF
-------------------------------------------------------------------------------

------------
SCF SETTINGS
------------
Hamiltonian:
 Ab initio Hamiltonian  Method          .... Hartree-Fock(GTOs)


General Settings:
 Integral files         IntName         .... 7_CH4_geomopt
 Hartree-Fock type      HFTyp           .... RHF
 Total Charge           Charge          ....    0
 Multiplicity           Mult            ....    1
 Number of Electrons    NEL             ....   10
 Basis Dimension        Dim             ....   18
 Nuclear Repulsion      ENuc            ....     24.9452082272 Eh

Convergence Acceleration:
 DIIS                   CNVDIIS         .... on
   Start iteration      DIISMaxIt       ....    12
   Startup error        DIISStart       ....  0.200000
   # of expansion vecs  DIISMaxEq       ....     5
   Bias factor          DIISBfac        ....   1.050
   Max. coefficient     DIISMaxC        ....  10.000
 Newton-Raphson         CNVNR           .... off
 SOSCF                  CNVSOSCF        .... on
   Start iteration      SOSCFMaxIt      ....   150
   Startup grad/error   SOSCFStart      ....  0.003300
 Level Shifting         CNVShift        .... on
   Level shift para.    LevelShift      ....    0.2500
   Turn off err/grad.   ShiftErr        ....    0.0010
 Zerner damping         CNVZerner       .... off
 Static damping         CNVDamp         .... on
   Fraction old density DampFac         ....    0.7000
   Max. Damping (<1)    DampMax         ....    0.9800
   Min. Damping (>=0)   DampMin         ....    0.0000
   Turn off err/grad.   DampErr         ....    0.1000
 Fernandez-Rico         CNVRico         .... off

SCF Procedure:
 Maximum # iterations   MaxIter         ....   125
 SCF integral mode      SCFMode         .... Direct
   Integral package                     .... LIBINT
 Reset frequeny         DirectResetFreq ....    20
 Integral Threshold     Thresh          ....  2.500e-11 Eh
 Primitive CutOff       TCut            ....  2.500e-12 Eh

Convergence Tolerance:
 Convergence Check Mode ConvCheckMode   .... Total+1el-Energy
 Energy Change          TolE            ....  1.000e-08 Eh
 1-El. energy change                    ....  1.000e-05 Eh
 Orbital Gradient       TolG            ....  1.000e-05
 Orbital Rotation angle TolX            ....  1.000e-05
 DIIS Error             TolErr          ....  5.000e-07


Diagonalization of the overlap matrix:
Smallest eigenvalue                        ... 1.034e-02
Time for diagonalization                   ...    0.002 sec
Threshold for overlap eigenvalues          ... 1.000e-08
Number of eigenvalues below threshold      ... 0
Time for construction of square roots      ...    0.006 sec
Total time needed                          ...    0.009 sec

-------------------
DFT GRID GENERATION
-------------------

General Integration Accuracy     IntAcc      ...  4.340
Radial Grid Type                 RadialGrid  ... Gauss-Chebyshev
Angular Grid (max. acc.)         AngularGrid ... Lebedev-110
Angular grid pruning method      GridPruning ... 3 (G Style)
Weight generation scheme         WeightScheme... Becke
Basis function cutoff            BFCut       ...    1.0000e-11
Integration weight cutoff        WCut        ...    1.0000e-14
Grids for H and He will be reduced by one unit

# of grid points (after initial pruning)     ...   4832 (   0.0 sec)
# of grid points (after weights+screening)   ...   4648 (   0.0 sec)
nearest neighbour list constructed           ...    0.0 sec
Grid point re-assignment to atoms done       ...    0.0 sec
Grid point division into batches done        ...    0.0 sec
Reduced shell lists constructed in    0.0 sec

Total number of grid points                  ...     4648
Total number of batches                      ...       76
Average number of points per batch           ...       61
Average number of grid points per atom       ...      930
Average number of shells per batch           ...    13.10 (93.60%)
Average number of basis functions per batch  ...    17.00 (94.44%)
Average number of large shells per batch     ...    12.57 (95.94%)
Average number of large basis fcns per batch ...    16.39 (96.41%)
Maximum spatial batch extension              ...  22.36, 25.60, 23.60 au
Average spatial batch extension              ...   4.89,  4.99,  4.39 au

Time for grid setup =    0.030 sec

------------------------------
INITIAL GUESS: MODEL POTENTIAL
------------------------------
Loading Hartree-Fock densities                     ... done
Calculating cut-offs                               ... done
Setting up the integral package                    ... done
Initializing the effective Hamiltonian             ... done
Starting the Coulomb interaction                   ... done (   0.0 sec)
Reading the grid                                   ... done
Mapping shells                                     ... done
Starting the XC term evaluation                    ... done (   0.0 sec)
Transforming the Hamiltonian                       ... done (   0.0 sec)
Diagonalizing the Hamiltonian                      ... done (   0.0 sec)
Back transforming the eigenvectors                 ... done (   0.0 sec)
Now organizing SCF variables                       ... done
                      ------------------
                      INITIAL GUESS DONE (   0.2 sec)
                      ------------------
----------------------
INITIAL GUESS ORBITALS
----------------------
                      0         1         2         3         4         5   
                 -10.74703  -1.30260  -0.97124  -0.97027  -0.97011   0.00133
                   2.00000   2.00000   2.00000   2.00000   2.00000   0.00000
                  --------  --------  --------  --------  --------  --------
  0C   1s         0.633598  0.210138  0.000139  0.000013 -0.000081  0.075665
  0C   2s         0.424210  0.230299  0.000022  0.000011 -0.000101  0.088454
  0C   3s         0.063241 -0.509915  0.000422 -0.000014  0.000122 -0.323935
  0C   4s        -0.056137  0.556450 -0.000905 -0.000140 -0.000262 -1.868910
  0C   1pz        0.000004 -0.000480  0.449807  0.608110 -0.253750  0.002709
  0C   1px       -0.000015  0.000111  0.395989 -0.003345  0.692517  0.009991
  0C   1py        0.000004 -0.000574  0.527127 -0.516376 -0.303400  0.002599
  0C   2pz       -0.000001  0.000238 -0.118976 -0.160154  0.068018 -0.030314
  0C   2px        0.000012 -0.000045 -0.104322  0.001019 -0.185999 -0.037670
  0C   2py       -0.000000  0.000188 -0.139654  0.135539  0.081028 -0.023881
  1H   1s        -0.000041 -0.275139 -0.207403  0.244107 -0.003485 -0.045062
  1H   2s         0.009053 -0.092535 -0.217033  0.254868 -0.004234  0.708237
  2H   1s        -0.000045 -0.275513  0.207670  0.032882 -0.242574 -0.035675
  2H   2s         0.009055 -0.092807  0.218538  0.034685 -0.255568  0.779120
  3H   1s        -0.000041 -0.275012 -0.159666 -0.275670 -0.033066 -0.045907
  3H   2s         0.009051 -0.092490 -0.166950 -0.287862 -0.035085  0.696941
  4H   1s        -0.000037 -0.275254  0.158250 -0.001346  0.279680 -0.030037
  4H   2s         0.009033 -0.092310  0.166220 -0.001561  0.295265  0.749783
                      6         7         8         9        10        11   
                   0.08098   0.08350   0.08564   0.26441   0.26999   0.27502
                   0.00000   0.00000   0.00000   0.00000   0.00000   0.00000
                  --------  --------  --------  --------  --------  --------
  0C   1s         0.001201  0.000474  0.000019 -0.001045  0.002139 -0.000297
  0C   2s         0.001474  0.000593  0.000030 -0.001543  0.003235 -0.000463
  0C   3s        -0.005676 -0.002048 -0.000155  0.009804 -0.019498  0.002854
  0C   4s        -0.039394 -0.023721 -0.000398 -0.020734 -0.000057 -0.000751
  0C   1pz        0.072729 -0.245451  0.302972 -0.039967 -0.053835  0.072609
  0C   1px       -0.376029 -0.111808  0.000571  0.082188 -0.054775  0.006022
  0C   1py        0.084695 -0.289847 -0.256667 -0.034379 -0.061549 -0.068618
  0C   2pz        0.127047 -0.479618  0.614888  1.424725  1.925813 -2.501135
  0C   2px       -0.750917 -0.225819  0.001232 -2.907378  1.876825 -0.203406
  0C   2py        0.156545 -0.566871 -0.524193  1.248738  2.185498  2.379532
  1H   1s        -0.004242 -0.014344 -0.025709 -0.028959  0.492586  0.598709
  1H   2s        -0.580971 -2.233753 -2.747631 -0.211935  3.422155  4.116031
  2H   1s        -0.006901  0.019089 -0.002909 -0.611220 -0.471061  0.021366
  2H   2s        -2.048847  2.867916 -0.361203 -4.277676 -3.272850  0.148219
  3H   1s        -0.006358 -0.010293  0.028716 -0.001471  0.398616 -0.666053
  3H   2s        -0.758759 -1.630139  3.114782 -0.021301  2.770096 -4.578830
  4H   1s         0.019900  0.008753 -0.000020  0.648674 -0.420140  0.045997
  4H   2s         3.442892  1.025183 -0.005329  4.516540 -2.893527  0.311701
                     12        13        14        15        16        17   
                   0.65089   0.91681   0.91768   0.91785   2.13002  12.80756
                   0.00000   0.00000   0.00000   0.00000   0.00000   0.00000
                  --------  --------  --------  --------  --------  --------
  0C   1s        -0.136493  0.000074  0.000183 -0.000053 -0.129329 -1.334219
  0C   2s        -0.212093 -0.000070  0.000212  0.000019 -0.393397  1.938089
  0C   3s         1.732106  0.000924 -0.001954 -0.000152  3.786441 -2.072545
  0C   4s        -6.991413 -0.002330  0.007886 -0.002388  4.941064  0.579361
  0C   1pz       -0.000990 -0.688437 -0.571868  1.291086  0.000248 -0.000032
  0C   1px        0.001081 -1.214827  0.973865 -0.216998 -0.000018  0.000011
  0C   1py       -0.000939 -0.720655 -1.093330 -0.868029 -0.000121 -0.000008
  0C   2pz        0.007261  0.524901  0.432133 -0.985464  0.002226 -0.000049
  0C   2px        0.023522  0.921547 -0.736465  0.163367  0.001438 -0.000164
  0C   2py        0.005411  0.549096  0.831317  0.664191  0.001954 -0.000040
  1H   1s         0.323085 -1.149602 -0.693666 -1.449046 -2.129277  0.439803
  1H   2s         1.296358  1.766048  1.068358  2.236964 -0.540845 -0.149997
  2H   1s         0.323116  0.670707  1.792146 -0.491412 -2.130644  0.439914
  2H   2s         1.274032 -1.036046 -2.748519  0.754752 -0.546248 -0.149915
  3H   1s         0.323621 -1.050351  0.124564  1.668926 -2.128680  0.439768
  3H   2s         1.298746  1.614275 -0.195101 -2.574925 -0.540708 -0.149994
  4H   1s         0.313830  1.526952 -1.224586  0.273403 -2.130616  0.439901
  4H   2s         1.239039 -2.340157  1.869656 -0.415545 -0.543580 -0.149642
--------------
SCF ITERATIONS
--------------
               ***  Starting incremental Fock matrix formation  ***

  HOMO=   4 E=-13.514 eV LUMO= 13.199 eV gap=  26.713 eV

                         ----------------------------
                         !        ITERATION     0   !
                         ----------------------------
   Total Energy        :     -37.791725521579 Eh
   Energy Change       :     -37.791725521579 Eh
   MAX-DP              :       0.156816671065
   RMS-DP              :       0.025848943951
   Actual Damping      :       0.7000
   Actual Level Shift  :       0.2500 Eh


  HOMO=   4 E=-15.424 eV LUMO= 13.123 eV gap=  28.547 eV

                         ----------------------------
                         !        ITERATION     1   !
                         ----------------------------
   Total Energy        :     -37.891518823066 Eh
   Energy Change       :      -0.099793301487 Eh
   MAX-DP              :       0.120290467183
   RMS-DP              :       0.018617698680
   Actual Damping      :       0.7000
   Actual Level Shift  :       0.2500 Eh

                               ***Turning on DIIS***

  HOMO=   4 E=-16.831 eV LUMO= 13.029 eV gap=  29.860 eV

                         ----------------------------
                         !        ITERATION     2   !
                         ----------------------------
   Total Energy        :     -37.958654342023 Eh
   Energy Change       :      -0.067135518957 Eh
   MAX-DP              :       0.081491774405
   RMS-DP              :       0.012190534373
   Actual Damping      :       0.7000
   Actual Level Shift  :       0.2500 Eh
   DIIS-Error          :       0.172173796577


  HOMO=   4 E=-19.114 eV LUMO= 12.866 eV gap=  31.979 eV

                         ----------------------------
                         !        ITERATION     3   !
                         ----------------------------
   Total Energy        :     -38.344858738757 Eh
   Energy Change       :      -0.386204396735 Eh
   MAX-DP              :       0.050243748510
   RMS-DP              :       0.007194722759
   Actual Damping      :       0.7000
   Actual Level Shift  :       0.2500 Eh
   DIIS-Error          :       0.114150621469
   DIIS coefficients:
     -1.38320   2.38320


  HOMO=   4 E=-19.529 eV LUMO= 12.837 eV gap=  32.367 eV

                         ----------------------------
                         !        ITERATION     4   !
                         ----------------------------
   Total Energy        :     -38.332276367818 Eh
   Energy Change       :       0.012582370939 Eh
   MAX-DP              :       0.111453156151
   RMS-DP              :       0.015617944645
   Actual Damping      :       0.0000
   Actual Level Shift  :       0.2500 Eh
   DIIS-Error          :       0.078532902969
   DIIS coefficients:
     -0.56559  -0.51716   2.08275

                      *** Initiating the SOSCF procedure ***
                           *** Shutting down DIIS ***
                      *** Re-Reading the Fockian *** 
                      *** Removing any level shift *** 

  HOMO=   4 E=-19.609 eV LUMO=  6.031 eV gap=  25.640 eV

                         ----------------------------
                         !        ITERATION     5   !
                         ----------------------------
   Total Energy        :     -38.101417642851 Eh
   Energy Change       :       0.230858724967 Eh
   MAX-DP              :       0.003496014190
   RMS-DP              :       0.000750335187
   Orbital gradient    :       0.001041527737
   Orbital Rotation    :       0.001041527737
   Actual Damping      :       0.0000

               *** Restarting incremental Fock matrix formation ***

  HOMO=   4 E=-19.609 eV LUMO=  6.031 eV gap=  25.640 eV

                         ----------------------------
                         !        ITERATION     6   !
                         ----------------------------
   Total Energy        :     -38.103685415559 Eh
   Energy Change       :      -0.002267772708 Eh
   MAX-DP              :       0.001470004128
   RMS-DP              :       0.000314304409
   Orbital gradient    :       0.000283203528
   Orbital Rotation    :       0.000210024114
   Actual Damping      :       0.0000


  HOMO=   4 E=-19.609 eV LUMO=  6.031 eV gap=  25.640 eV

                         ----------------------------
                         !        ITERATION     7   !
                         ----------------------------
   Total Energy        :     -38.103686030739 Eh
   Energy Change       :      -0.000000615180 Eh
   MAX-DP              :       0.000576466006
   RMS-DP              :       0.000122816506
   Orbital gradient    :       0.000071812925
   Orbital Rotation    :       0.000074374892
   Actual Damping      :       0.0000


  HOMO=   4 E=-19.609 eV LUMO=  6.031 eV gap=  25.640 eV

                         ----------------------------
                         !        ITERATION     8   !
                         ----------------------------
   Total Energy        :     -38.103686082840 Eh
   Energy Change       :      -0.000000052101 Eh
   MAX-DP              :       0.000006109996
   RMS-DP              :       0.000001156259
   Orbital gradient    :       0.000003957651
   Orbital Rotation    :       0.000002673373
   Actual Damping      :       0.0000

                 **** Energy Check signals convergence ****
              ***Rediagonalizing the Fockian in SOSCF/NRSCF***

               *****************************************************
               *                     SUCCESS                       *
               *           SCF CONVERGED AFTER   9 CYCLES          *
               *****************************************************


----------------
TOTAL SCF ENERGY
----------------

Total Energy       :          -38.10368608 Eh           -1036.85401 eV

Components:
Nuclear Repulsion  :           24.94520823 Eh             678.79363 eV
Electronic Energy  :          -63.04889431 Eh           -1715.64764 eV

One Electron Energy:          -96.94858628 Eh           -2638.10515 eV
Two Electron Energy:           33.89969197 Eh             922.45752 eV

Virial components:
Potential Energy   :          -83.41251445 Eh           -2269.76991 eV
Kinetic Energy     :           45.30882837 Eh            1232.91590 eV
Virial Ratio       :            1.84097708


---------------
SCF CONVERGENCE
---------------

  Last Energy change         ...   -6.0076e-11  Tolerance :   1.0000e-08
  Last MAX-Density change    ...    9.0010e-07  Tolerance :   1.0000e-07
  Last RMS-Density change    ...    1.5953e-07  Tolerance :   5.0000e-09
  Last Orbital Gradient      ...    5.1454e-07  Tolerance :   1.0000e-05
  Last Orbital Rotation      ...    2.7767e-07  Tolerance :   1.0000e-05

             **** THE GBW FILE WAS UPDATED (7_CH4_geomopt.gbw) ****
             **** DENSITY FILE WAS UPDATED (7_CH4_geomopt.scfp.tmp) ****
             **** ENERGY FILE WAS UPDATED (7_CH4_geomopt.en.tmp) ****
----------------
ORBITAL ENERGIES
----------------

  NO   OCC          E(Eh)            E(eV) 
   0   2.0000     -11.206899      -304.9552 
   1   2.0000      -1.206600       -32.8333 
   2   2.0000      -0.720366       -19.6022 
   3   2.0000      -0.720366       -19.6022 
   4   2.0000      -0.720366       -19.6022 
   5   0.0000       0.221655         6.0315 
   6   0.0000       0.298171         8.1137 
   7   0.0000       0.298171         8.1137 
   8   0.0000       0.298171         8.1137 
   9   0.0000       0.627877        17.0854 
  10   0.0000       0.627877        17.0854 
  11   0.0000       0.627877        17.0854 
  12   0.0000       1.131761        30.7968 
  13   0.0000       1.767277        48.0901 
  14   0.0000       1.767277        48.0901 
  15   0.0000       1.767278        48.0901 
  16   0.0000       3.023260        82.2671 
  17   0.0000      14.657546       398.8521 
------------------
MOLECULAR ORBITALS
------------------
                      0         1         2         3         4         5   
                 -11.20690  -1.20660  -0.72037  -0.72037  -0.72037   0.22166
                   2.00000   2.00000   2.00000   2.00000   2.00000   0.00000
                  --------  --------  --------  --------  --------  --------
  0C   1s        -0.642324 -0.182653  0.000000 -0.000000  0.000000  0.055745
  0C   2s        -0.417241 -0.211906  0.000000 -0.000000  0.000000  0.054548
  0C   3s        -0.051170  0.317639  0.000000  0.000000 -0.000000  0.050483
  0C   4s         0.051630 -0.321438  0.000000 -0.000000 -0.000000 -3.113675
  0C   1pz        0.000000  0.000000  0.438442 -0.428904  0.019737 -0.000000
  0C   1px        0.000000 -0.000000 -0.426826 -0.438454 -0.046449  0.000000
  0C   1py        0.000000 -0.000000  0.046566  0.019458 -0.611582  0.000000
  0C   2pz        0.000000  0.000000 -0.026315  0.025743 -0.001185 -0.000000
  0C   2px       -0.000000  0.000000  0.025618  0.026316  0.002788  0.000000
  0C   2py       -0.000000  0.000000 -0.002795 -0.001168  0.036707  0.000000
  1H   1s        -0.003248  0.281641  0.137358  0.023551  0.406045 -0.022916
  1H   2s        -0.007999  0.074743  0.087876  0.015067  0.259771  0.958156
  2H   1s        -0.003248  0.281641  0.330320 -0.093991 -0.257582 -0.022916
  2H   2s        -0.007999  0.074743  0.211325 -0.060132 -0.164791  0.958156
  3H   1s        -0.003248  0.281641 -0.169087  0.377167 -0.115969 -0.022916
  3H   2s        -0.007999  0.074743 -0.108175  0.241296 -0.074192  0.958155
  4H   1s        -0.003248  0.281641 -0.298591 -0.306727 -0.032493 -0.022916
  4H   2s        -0.007999  0.074743 -0.191027 -0.196232 -0.020788  0.958156
                      6         7         8         9        10        11   
                   0.29817   0.29817   0.29817   0.62788   0.62788   0.62788
                   0.00000   0.00000   0.00000   0.00000   0.00000   0.00000
                  --------  --------  --------  --------  --------  --------
  0C   1s         0.000000  0.000000  0.000000 -0.000000 -0.000000  0.000000
  0C   2s         0.000000  0.000000  0.000000 -0.000000 -0.000000 -0.000000
  0C   3s         0.000000 -0.000000  0.000000 -0.000000  0.000000  0.000000
  0C   4s        -0.000000 -0.000000 -0.000000 -0.000000 -0.000000 -0.000000
  0C   1pz        0.133480  0.141408  0.050332  0.049378  0.163377  0.242265
  0C   1px       -0.145899  0.138054 -0.000944  0.044809  0.238560 -0.170012
  0C   1py        0.035258  0.035931 -0.194454  0.288750 -0.064959 -0.015045
  0C   2pz        1.174630  1.244403  0.442922 -0.532053 -1.760426 -2.610459
  0C   2px       -1.283920  1.214889 -0.008308 -0.482831 -2.570535  1.831911
  0C   2py        0.310270  0.316198 -1.711206 -3.111344  0.699946  0.162116
  1H   1s         0.023115 -0.024113  0.095780 -0.655874  0.039239  0.302475
  1H   2s        -1.175436  1.226176 -4.870590 -3.980562  0.238146  1.835749
  2H   1s         0.082194  0.037353 -0.046242  0.503617 -0.024510  0.518624
  2H   2s        -4.179746 -1.899459  2.351506  3.056501 -0.148756  3.147577
  3H   1s        -0.031630 -0.082958 -0.049061  0.042887 -0.597005 -0.406136
  3H   2s         1.608444  4.218585  2.494846  0.260285 -3.623283 -2.464881
  4H   1s        -0.073679  0.069718 -0.000477  0.109370  0.582277 -0.414962
  4H   2s         3.746739 -3.545302  0.024237  0.663777  3.533893 -2.518446
                     12        13        14        15        16        17   
                   1.13176   1.76728   1.76728   1.76728   3.02326  14.65755
                   0.00000   0.00000   0.00000   0.00000   0.00000   0.00000
                  --------  --------  --------  --------  --------  --------
  0C   1s        -0.137744 -0.000000 -0.000000 -0.000000  0.122052 -1.335633
  0C   2s        -0.248792 -0.000000 -0.000000 -0.000000  0.430501  1.930691
  0C   3s         1.647160  0.000000  0.000000  0.000000 -3.896178 -2.000710
  0C   4s        -6.748842 -0.000000  0.000000 -0.000000 -4.668147  0.546299
  0C   1pz        0.000000  0.167250  0.860026 -1.413906 -0.000000 -0.000000
  0C   1px       -0.000000  0.210602  1.398493  0.875563  0.000000  0.000000
  0C   1py       -0.000000  1.641469 -0.267056  0.031728  0.000000  0.000000
  0C   2pz       -0.000000 -0.088509 -0.455126  0.748240 -0.000000 -0.000000
  0C   2px        0.000000 -0.111451 -0.740084 -0.463348  0.000000  0.000000
  0C   2py        0.000000 -0.868667  0.141326 -0.016791  0.000000  0.000000
  1H   1s         0.436003  1.823471  0.037452  0.750498  2.112360  0.421644
  1H   2s         1.139921 -2.068825 -0.042491 -0.851480  0.501902 -0.141178
  2H   1s         0.436003 -1.316266  0.061411  1.467436  2.112360  0.421644
  2H   2s         1.139921  1.493374 -0.069674 -1.664884  0.501902 -0.141178
  3H   1s         0.436003 -0.257497  1.559325 -1.179786  2.112360  0.421644
  3H   2s         1.139921  0.292144 -1.769138  1.338530  0.501902 -0.141178
  4H   1s         0.436003 -0.249708 -1.658189 -1.038148  2.112360  0.421644
  4H   2s         1.139921  0.283307  1.881304  1.177834  0.501902 -0.141178


-------
DENSITY
-------
                  0          1          2          3          4          5    
      0       0.891884   0.613418  -0.050300   0.051097  -0.000000   0.000000
      1       0.613418   0.437988  -0.091918   0.093145  -0.000000   0.000000
      2      -0.050300  -0.091918   0.207025  -0.209486   0.000000  -0.000000
      3       0.051097   0.093145  -0.209486   0.211976   0.000000   0.000000
      4      -0.000000  -0.000000   0.000000   0.000000   0.753159  -0.000000
      5       0.000000   0.000000  -0.000000   0.000000  -0.000000   0.753159
      6      -0.000000  -0.000000  -0.000000   0.000000   0.000000  -0.000000
      7      -0.000000  -0.000000   0.000000  -0.000000  -0.045205   0.000000
      8      -0.000000  -0.000000   0.000000  -0.000000   0.000000  -0.045204
      9      -0.000000  -0.000000   0.000000  -0.000000   0.000000  -0.000000
     10      -0.098713  -0.116653   0.179253  -0.181396   0.116273  -0.175628
     11      -0.017028  -0.025002   0.048301  -0.048876   0.074387  -0.112360
     12      -0.098713  -0.116653   0.179253  -0.181396   0.360110  -0.175628
     13      -0.017028  -0.025002   0.048301  -0.048876   0.230384  -0.112360
     14      -0.098713  -0.116653   0.179253  -0.181396  -0.476384  -0.175627
     15      -0.017028  -0.025002   0.048301  -0.048876  -0.304771  -0.112359
     16      -0.098713  -0.116653   0.179253  -0.181396   0.000001   0.526883
     17      -0.017028  -0.025002   0.048301  -0.048876   0.000001   0.337078
                  6          7          8          9         10         11    
      0      -0.000000  -0.000000  -0.000000  -0.000000  -0.098713  -0.017028
      1      -0.000000  -0.000000  -0.000000  -0.000000  -0.116653  -0.025002
      2      -0.000000   0.000000   0.000000   0.000000   0.179253   0.048301
      3       0.000000  -0.000000  -0.000000  -0.000000  -0.181396  -0.048876
      4       0.000000  -0.045205   0.000000   0.000000   0.116273   0.074387
      5      -0.000000   0.000000  -0.045204  -0.000000  -0.175628  -0.112360
      6       0.753159   0.000000  -0.000000  -0.045204  -0.482950  -0.308972
      7       0.000000   0.002713  -0.000000  -0.000000  -0.006979  -0.004465
      8      -0.000000  -0.000000   0.002713   0.000000   0.010541   0.006744
      9      -0.045204  -0.000000   0.000000   0.002713   0.028987   0.018544
     10      -0.482950  -0.006979   0.010541   0.028987   0.527253   0.277961
     11      -0.308972  -0.004465   0.006744   0.018544   0.277961   0.162161
     12       0.342171  -0.021614   0.010541  -0.020537   0.035802  -0.036449
     13       0.218907  -0.013828   0.006744  -0.013139  -0.036449  -0.038986
     14       0.140780   0.028593   0.010541  -0.008450   0.035802  -0.036449
     15       0.090065   0.018292   0.006744  -0.005406  -0.036449  -0.038986
     16      -0.000001  -0.000000  -0.031623   0.000000   0.035802  -0.036449
     17      -0.000000  -0.000000  -0.020231   0.000000  -0.036449  -0.038986
                 12         13         14         15         16         17    
      0      -0.098713  -0.017028  -0.098713  -0.017028  -0.098713  -0.017028
      1      -0.116653  -0.025002  -0.116653  -0.025002  -0.116653  -0.025002
      2       0.179253   0.048301   0.179253   0.048301   0.179253   0.048301
      3      -0.181396  -0.048876  -0.181396  -0.048876  -0.181396  -0.048876
      4       0.360110   0.230384  -0.476384  -0.304771   0.000001   0.000001
      5      -0.175628  -0.112360  -0.175627  -0.112359   0.526883   0.337078
      6       0.342171   0.218907   0.140780   0.090065  -0.000001  -0.000000
      7      -0.021614  -0.013828   0.028593   0.018292  -0.000000  -0.000000
      8       0.010541   0.006744   0.010541   0.006744  -0.031623  -0.020231
      9      -0.020537  -0.013139  -0.008450  -0.005406   0.000000   0.000000
     10       0.035802  -0.036449   0.035802  -0.036449   0.035802  -0.036449
     11      -0.036449  -0.038986  -0.036449  -0.038986  -0.036449  -0.038986
     12       0.527253   0.277961   0.035802  -0.036449   0.035802  -0.036449
     13       0.277961   0.162161  -0.036449  -0.038986  -0.036449  -0.038986
     14       0.035802  -0.036449   0.527253   0.277961   0.035802  -0.036449
     15      -0.036449  -0.038986   0.277961   0.162161  -0.036449  -0.038986
     16       0.035802  -0.036449   0.035802  -0.036449   0.527253   0.277961
     17      -0.036449  -0.038986  -0.036449  -0.038986   0.277961   0.162161



                    ********************************
                    * MULLIKEN POPULATION ANALYSIS *
                    ********************************

-----------------------
MULLIKEN ATOMIC CHARGES
-----------------------
   0 C :    0.647118
   1 H :   -0.161780
   2 H :   -0.161780
   3 H :   -0.161780
   4 H :   -0.161780
Sum of atomic charges:    0.0000000

------------------------
MULLIKEN ORBITAL CHARGES
------------------------
The uncorrected charge=density diagonal is given in parenthesis)
   0:   0C   1s           1.267544 (  0.891884)
   1:   0C   2s           0.685665 (  0.437988)
   2:   0C   3s           0.593949 (  0.207025)
   3:   0C   4s          -0.584474 (  0.211976)
   4:   0C   1pz          1.179062 (  0.753159)
   5:   0C   1px          1.179062 (  0.753159)
   6:   0C   1py          1.179062 (  0.753159)
   7:   0C   2pz         -0.048996 (  0.002713)
   8:   0C   2px         -0.048996 (  0.002713)
   9:   0C   2py         -0.048996 (  0.002713)
  10:   1H   1s           0.936246 (  0.527253)
  11:   1H   2s           0.225534 (  0.162161)
  12:   2H   1s           0.936246 (  0.527253)
  13:   2H   2s           0.225534 (  0.162161)
  14:   3H   1s           0.936246 (  0.527253)
  15:   3H   2s           0.225534 (  0.162161)
  16:   4H   1s           0.936246 (  0.527253)
  17:   4H   2s           0.225534 (  0.162161)
Sum of orbital charges :   10.0000000

--------------------------------
MULLIKEN REDUCED ORBITAL CHARGES
--------------------------------
  0 C s       :     1.962684  s :     1.962684
      pz      :     1.130066  p :     3.390198
      px      :     1.130066
      py      :     1.130066
  1 H s       :     1.161780  s :     1.161780
  2 H s       :     1.161780  s :     1.161780
  3 H s       :     1.161780  s :     1.161780
  4 H s       :     1.161780  s :     1.161780

------------------------
MULLIKEN OVERLAP CHARGES
------------------------
B(  0-C ,  1-H ) :   0.5053 B(  0-C ,  2-H ) :   0.5053 B(  0-C ,  3-H ) :   0.5053 
B(  0-C ,  4-H ) :   0.5053 B(  1-H ,  2-H ) :  -0.1073 B(  1-H ,  3-H ) :  -0.1073 
B(  1-H ,  4-H ) :  -0.1073 B(  2-H ,  3-H ) :  -0.1073 B(  2-H ,  4-H ) :  -0.1073 
B(  3-H ,  4-H ) :  -0.1073 

-----------------------------------
MULLIKEN ORBITAL POPULATIONS PER MO
-----------------------------------
THRESHOLD FOR PRINTING IS 0.1%
                      0         1         2         3         4         5   
                 -11.20690  -1.20660  -0.72037  -0.72037  -0.72037   0.22166
                   2.00000   2.00000   2.00000   2.00000   2.00000   0.00000
                  --------  --------  --------  --------  --------  --------
  0C   1s             60.8       2.6       0.0       0.0       0.0       0.2
  0C   2s             37.3      -3.0      -0.0      -0.0      -0.0      -0.2
  0C   3s              2.2      27.5      -0.0       0.0       0.0      -0.7
  0C   4s             -1.1     -28.2      -0.0      -0.0       0.0     -97.9
  0C   1pz            -0.0       0.0      30.1      28.8       0.1      -0.0
  0C   1px            -0.0       0.0      28.5      30.1       0.3      -0.0
  0C   1py             0.0       0.0       0.3       0.1      58.6       0.0
  0C   2pz            -0.0       0.0      -1.3      -1.2      -0.0      -0.0
  0C   2px             0.0      -0.0      -1.2      -1.3      -0.0      -0.0
  0C   2py            -0.0      -0.0      -0.0      -0.0      -2.4       0.0
  1H   1s              0.1      19.9       2.7       0.1      24.0       0.0
  1H   2s              0.1       5.4       0.6       0.0       5.2      49.6
  2H   1s              0.1      19.9      15.9       1.3       9.7       0.0
  2H   2s              0.1       5.4       3.4       0.3       2.1      49.6
  3H   1s              0.1      19.9       4.2      20.7       2.0       0.0
  3H   2s              0.1       5.4       0.9       4.5       0.4      49.6
  4H   1s              0.1      19.9      13.0      13.7       0.2       0.0
  4H   2s              0.1       5.4       2.8       3.0       0.0      49.6

                      6         7         8         9        10        11   
                   0.29817   0.29817   0.29817   0.62788   0.62788   0.62788
                   0.00000   0.00000   0.00000   0.00000   0.00000   0.00000
                  --------  --------  --------  --------  --------  --------
  0C   1pz             1.4       1.6       0.2       0.0       0.2       0.3
  0C   1px             1.7       1.5       0.0       0.0       0.3       0.2
  0C   1py             0.1       0.1       3.1       0.5       0.0       0.0
  0C   2pz           -37.6     -42.2      -5.3       5.0      54.7     120.3
  0C   2px           -44.9     -40.2      -0.0       4.1     116.6      59.2
  0C   2py            -2.6      -2.7     -79.8     170.9       8.6       0.5
  1H   1s             -0.0      -0.0      -0.3       2.2       0.0       0.5
  1H   2s              7.1       7.7     122.0     -51.8      -0.2     -11.0
  2H   1s             -0.2      -0.0      -0.1       1.3       0.0       1.4
  2H   2s             89.8      18.6      28.4     -30.6      -0.1     -32.4
  3H   1s             -0.0      -0.2      -0.1       0.0       1.8       0.8
  3H   2s             13.3      91.5      32.0      -0.2     -43.0     -19.9
  4H   1s             -0.2      -0.2      -0.0       0.1       1.7       0.9
  4H   2s             72.2      64.6       0.0      -1.4     -40.9     -20.8

                     12        13        14        15        16        17   
                   1.13176   1.76728   1.76728   1.76728   3.02326  14.65755
                   0.00000   0.00000   0.00000   0.00000   0.00000   0.00000
                  --------  --------  --------  --------  --------  --------
  0C   1s              1.4       0.0       0.0       0.0       1.1      33.9
  0C   2s             -3.0      -0.0      -0.0      -0.0      -5.3      74.3
  0C   3s             21.6       0.0       0.0       0.0      60.7     -11.4
  0C   4s            200.1       0.0      -0.0       0.0      26.1       0.9
  0C   1pz             0.0       0.4      10.0      26.9       0.0      -0.0
  0C   1px            -0.0       0.6      26.3      10.3       0.0       0.0
  0C   1py             0.0      36.3       1.0       0.0       0.0      -0.0
  0C   2pz            -0.0       0.1       2.0       5.5      -0.0      -0.0
  0C   2px             0.0       0.1       5.4       2.1      -0.0      -0.0
  0C   2py             0.0       7.4       0.2       0.0      -0.0      -0.0
  1H   1s             -2.2      39.2       0.0       6.6       6.5       0.7
  1H   2s            -27.8      -3.9      -0.0      -0.7      -2.1      -0.2
  2H   1s             -2.2      20.4       0.0      25.4       6.5       0.7
  2H   2s            -27.8      -2.0      -0.0      -2.5      -2.1      -0.2
  3H   1s             -2.2       0.8      28.7      16.4       6.5       0.7
  3H   2s            -27.8      -0.1      -2.8      -1.6      -2.1      -0.2
  4H   1s             -2.2       0.7      32.4      12.7       6.5       0.7
  4H   2s            -27.8      -0.1      -3.2      -1.3      -2.1      -0.2



                     *******************************
                     * LOEWDIN POPULATION ANALYSIS *
                     *******************************

----------------------
LOEWDIN ATOMIC CHARGES
----------------------
   0 C :   -0.619290
   1 H :    0.154823
   2 H :    0.154823
   3 H :    0.154823
   4 H :    0.154823

-----------------------
LOEWDIN ORBITAL CHARGES
-----------------------
   0:   0C   1s           1.217808
   1:   0C   2s           0.770929
   2:   0C   3s           0.457078
   3:   0C   4s           0.167126
   4:   0C   1pz          1.102873
   5:   0C   1px          1.102873
   6:   0C   1py          1.102873
   7:   0C   2pz          0.232577
   8:   0C   2px          0.232577
   9:   0C   2py          0.232577
  10:   1H   1s           0.714669
  11:   1H   2s           0.130509
  12:   2H   1s           0.714669
  13:   2H   2s           0.130509
  14:   3H   1s           0.714669
  15:   3H   2s           0.130509
  16:   4H   1s           0.714669
  17:   4H   2s           0.130509

-------------------------------
LOEWDIN REDUCED ORBITAL CHARGES
-------------------------------
  0 C s       :     2.612941  s :     2.612941
      pz      :     1.335450  p :     4.006350
      px      :     1.335450
      py      :     1.335450
  1 H s       :     0.845177  s :     0.845177
  2 H s       :     0.845177  s :     0.845177
  3 H s       :     0.845177  s :     0.845177
  4 H s       :     0.845177  s :     0.845177

---------------------------------
LOEWDIN BOND ORDERS (THRESH 0.05)
---------------------------------
B(  0-C ,  1-H ) :   0.8793 B(  0-C ,  2-H ) :   0.8793 B(  0-C ,  3-H ) :   0.8793 
B(  0-C ,  4-H ) :   0.8793 

----------------------------------
LOEWDIN ORBITAL POPULATIONS PER MO
----------------------------------
THRESHOLD FOR PRINTING IS 0.1%
                      0         1         2         3         4         5   
                 -11.20690  -1.20660  -0.72037  -0.72037  -0.72037   0.22166
                   2.00000   2.00000   2.00000   2.00000   2.00000   0.00000
                  --------  --------  --------  --------  --------  --------
  0C   1s             56.7       4.2       0.0       0.0       0.0       0.2
  0C   2s             38.0       0.5       0.0       0.0       0.0       0.0
  0C   3s              3.4      19.5       0.0       0.0       0.0       4.7
  0C   4s              0.1       8.2       0.0       0.0       0.0       3.2
  0C   1pz             0.0       0.0      28.1      26.9       0.1       0.0
  0C   1px             0.0       0.0      26.7      28.2       0.3       0.0
  0C   1py             0.0       0.0       0.3       0.1      54.8       0.0
  0C   2pz             0.0       0.0       5.9       5.7       0.0       0.0
  0C   2px             0.0       0.0       5.6       5.9       0.1       0.0
  0C   2py             0.0       0.0       0.1       0.0      11.6       0.0
  1H   1s              0.4      12.1       2.4       0.1      20.8       2.8
  1H   2s              0.1       4.8       0.2       0.0       1.5      20.1
  2H   1s              0.4      12.1      13.8       1.1       8.4       2.8
  2H   2s              0.1       4.8       1.0       0.1       0.6      20.1
  3H   1s              0.4      12.1       3.6      17.9       1.7       2.8
  3H   2s              0.1       4.8       0.3       1.3       0.1      20.1
  4H   1s              0.4      12.1      11.2      11.9       0.1       2.8
  4H   2s              0.1       4.8       0.8       0.9       0.0      20.1

                      6         7         8         9        10        11   
                   0.29817   0.29817   0.29817   0.62788   0.62788   0.62788
                   0.00000   0.00000   0.00000   0.00000   0.00000   0.00000
                  --------  --------  --------  --------  --------  --------
  0C   1pz             4.3       4.8       0.6       0.0       0.3       0.7
  0C   1px             5.1       4.6       0.0       0.0       0.7       0.3
  0C   1py             0.3       0.3       9.1       1.0       0.0       0.0
  0C   2pz             4.0       4.5       0.6       2.2      23.6      52.0
  0C   2px             4.8       4.3       0.0       1.8      50.4      25.6
  0C   2py             0.3       0.3       8.6      73.9       3.7       0.2
  1H   1s              0.0       0.0       0.0       6.1       0.0       1.3
  1H   2s              3.2       3.4      54.2       6.9       0.0       1.5
  2H   1s              0.0       0.0       0.0       3.6       0.0       3.8
  2H   2s             39.9       8.2      12.6       4.1       0.0       4.3
  3H   1s              0.0       0.0       0.0       0.0       5.1       2.4
  3H   2s              5.9      40.7      14.2       0.0       5.7       2.7
  4H   1s              0.0       0.0       0.0       0.2       4.8       2.5
  4H   2s             32.1      28.7       0.0       0.2       5.5       2.8

                     12        13        14        15        16        17   
                   1.13176   1.76728   1.76728   1.76728   3.02326  14.65755
                   0.00000   0.00000   0.00000   0.00000   0.00000   0.00000
                  --------  --------  --------  --------  --------  --------
  0C   1s              2.8       0.0       0.0       0.0       2.6      33.4
  0C   2s              1.2       0.0       0.0       0.0       1.1      59.1
  0C   3s             23.8       0.0       0.0       0.0      41.9       6.7
  0C   4s             72.0       0.0       0.0       0.0      16.0       0.5
  0C   1pz             0.0       0.3       9.1      24.6       0.0       0.0
  0C   1px             0.0       0.5      24.1       9.4       0.0       0.0
  0C   1py             0.0      33.2       0.9       0.0       0.0       0.0
  0C   2pz             0.0       0.0       0.4       1.0       0.0       0.0
  0C   2px             0.0       0.0       1.0       0.4       0.0       0.0
  0C   2py             0.0       1.4       0.0       0.0       0.0       0.0
  1H   1s              0.0      37.9       0.0       6.4       9.6       0.1
  1H   2s              0.0       3.5       0.0       0.6       0.0       0.0
  2H   1s              0.0      19.7       0.0      24.5       9.6       0.1
  2H   2s              0.0       1.8       0.0       2.2       0.0       0.0
  3H   1s              0.0       0.8      27.7      15.9       9.6       0.1
  3H   2s              0.0       0.1       2.5       1.4       0.0       0.0
  4H   1s              0.0       0.7      31.3      12.3       9.6       0.1
  4H   2s              0.0       0.1       2.9       1.1       0.0       0.0


------------------------------------------
LOEWDIN REDUCED ORBITAL POPULATIONS PER MO
-------------------------------------------
THRESHOLD FOR PRINTING IS 0.1%
                      0         1         2         3         4         5   
                 -11.20690  -1.20660  -0.72037  -0.72037  -0.72037   0.22166
                   2.00000   2.00000   2.00000   2.00000   2.00000   0.00000
                  --------  --------  --------  --------  --------  --------
 0 C  s              98.2      32.5       0.0       0.0       0.0       8.1
 0 C  pz              0.0       0.0      34.1      32.6       0.1       0.0
 0 C  px              0.0       0.0      32.3      34.1       0.4       0.0
 0 C  py              0.0       0.0       0.4       0.1      66.3       0.0
 1 H  s               0.5      16.9       2.6       0.1      22.3      23.0
 2 H  s               0.5      16.9      14.8       1.2       9.0      23.0
 3 H  s               0.5      16.9       3.9      19.2       1.8      23.0
 4 H  s               0.5      16.9      12.1      12.7       0.1      23.0

                      6         7         8         9        10        11   
                   0.29817   0.29817   0.29817   0.62788   0.62788   0.62788
                   0.00000   0.00000   0.00000   0.00000   0.00000   0.00000
                  --------  --------  --------  --------  --------  --------
 0 C  pz              8.3       9.4       1.2       2.2      24.0      52.7
 0 C  px             10.0       8.9       0.0       1.8      51.1      25.9
 0 C  py              0.6       0.6      17.7      74.8       3.8       0.2
 1 H  s               3.2       3.4      54.2      13.1       0.0       2.8
 2 H  s              40.0       8.3      12.6       7.7       0.0       8.2
 3 H  s               5.9      40.7      14.2       0.1      10.8       5.0
 4 H  s              32.1      28.7       0.0       0.4      10.3       5.2

                     12        13        14        15        16        17   
                   1.13176   1.76728   1.76728   1.76728   3.02326  14.65755
                   0.00000   0.00000   0.00000   0.00000   0.00000   0.00000
                  --------  --------  --------  --------  --------  --------
 0 C  s              99.8       0.0       0.0       0.0      61.7      99.7
 0 C  pz              0.0       0.4       9.5      25.7       0.0       0.0
 0 C  px              0.0       0.6      25.1       9.8       0.0       0.0
 0 C  py              0.0      34.6       0.9       0.0       0.0       0.0
 1 H  s               0.0      41.3       0.0       7.0       9.6       0.1
 2 H  s               0.0      21.5       0.0      26.8       9.6       0.1
 3 H  s               0.0       0.8      30.2      17.3       9.6       0.1
 4 H  s               0.0       0.8      34.2      13.4       9.6       0.1



                      *****************************
                      * MAYER POPULATION ANALYSIS *
                      *****************************

  NA   - Mulliken gross atomic population
  ZA   - Total nuclear charge
  QA   - Mulliken gross atomic charge
  VA   - Mayer's total valence
  BVA  - Mayer's bonded valence
  FA   - Mayer's free valence

  ATOM       NA         ZA         QA         VA         BVA        FA
  0 C      5.3529     6.0000     0.6471     2.8579     2.8579     0.0000
  1 H      1.1618     1.0000    -0.1618     0.8655     0.8655     0.0000
  2 H      1.1618     1.0000    -0.1618     0.8655     0.8655     0.0000
  3 H      1.1618     1.0000    -0.1618     0.8655     0.8655     0.0000
  4 H      1.1618     1.0000    -0.1618     0.8655     0.8655     0.0000

  Mayer bond orders larger than 0.1
B(  0-C ,  1-H ) :   0.7145 B(  0-C ,  2-H ) :   0.7145 B(  0-C ,  3-H ) :   0.7145 
B(  0-C ,  4-H ) :   0.7145 

Environment variable NBOEXE for nbo6.exe or nbo5.exe not set! Skipping NBO-Analysis

-------
TIMINGS
-------

Total SCF time: 0 days 0 hours 0 min 1 sec 

Total time                  ....       1.673 sec
Sum of individual times     ....       1.900 sec  (113.5%)

Fock matrix formation       ....       1.625 sec  ( 97.1%)
Diagonalization             ....       0.002 sec  (  0.1%)
Density matrix formation    ....       0.000 sec  (  0.0%)
Population analysis         ....       0.017 sec  (  1.0%)
Initial guess               ....       0.213 sec  ( 12.7%)
Orbital Transformation      ....       0.000 sec  (  0.0%)
Orbital Orthonormalization  ....       0.000 sec  (  0.0%)
DIIS solution               ....       0.002 sec  (  0.1%)
SOSCF solution              ....       0.010 sec  (  0.6%)

-------------------------   --------------------
FINAL SINGLE POINT ENERGY       -38.103686082900
-------------------------   --------------------

------------------------------------------------------------------------------
                         ORCA SCF GRADIENT CALCULATION
------------------------------------------------------------------------------

Gradient of the Hartree-Fock SCF energy:
Hartree-Fock type                ... RHF
Number of operators              ...    1
Number of atoms                  ...    5
Basis set dimensions             ...   18
Integral neglect threshold       ... 2.5e-11
Integral primitive cutoff        ... 2.5e-12

Nuclear repulsion gradient       ... done
One Electron Gradient            ... done
Pre-screening matrix             ... done
Starting the two electron gradient:
Two electron gradient done

------------------
CARTESIAN GRADIENT
------------------

   1   C   :   -0.000000023   -0.000000022   -0.000000012
   2   H   :    0.621289878    1.708448770   -0.411318527
   3   H   :    0.621288270   -1.210438577   -1.273899988
   4   H   :    0.621283955   -0.498012228    1.685221628
   5   H   :   -1.863862079    0.000002056   -0.000003100

Norm of the cartesian gradient     ...    3.727724078
RMS gradient                       ...    0.962494218
MAX gradient                       ...    1.863862079

-------
TIMINGS
-------

Total SCF gradient time            ...        0.210 sec

One electron gradient       ....       0.004 sec  (  1.7%)
Prescreening matrices       ....       0.002 sec  (  0.8%)
Two electron gradient       ....       0.028 sec  ( 13.4%)
------------------------------------------------------------------------------
                         ORCA GEOMETRY RELAXATION STEP
------------------------------------------------------------------------------

Reading the OPT-File                    .... done
Getting information on internals        .... done
Copying old internal coords+grads       .... done
Making the new internal coordinates     .... (new redundants).... done
Validating the new internal coordinates .... (new redundants).... done
Calculating the B-matrix                .... done
Calculating the G,G- and P matrices     .... done
Transforming gradient to internals      .... done
Projecting the internal gradient        .... done
Number of atoms                         ....   5
Number of internal coordinates          ....  10
Current Energy                          ....   -38.103686083 Eh
Current gradient norm                   ....     3.727724078 Eh/bohr
Maximum allowed component of the step   ....  0.300
Current trust radius                    ....  0.300
Evaluating the initial hessian          ....  (Almloef) done
Projecting the Hessian                  .... done
Forming the augmented Hessian           .... done
Diagonalizing the augmented Hessian     .... done
Last element of RFO vector              ....  0.804049175
Lowest eigenvalues of augmented Hessian:
 -2.756505622  0.554831982  0.554831982  0.554831984  0.554831987
Length of the computed step             ....  0.739460745
Warning: the length of the step is outside the trust region - taking restricted step instead
The input lambda is                     ....    -2.756506
   iter:   1  x=   -4.862206  g=    0.216936 f(x)=     0.456802
   iter:   2  x=   -7.253491  g=    0.076133 f(x)=     0.182057
   iter:   3  x=   -9.212504  g=    0.032028 f(x)=     0.062743
   iter:   4  x=  -10.039611  g=    0.018287 f(x)=     0.015126
   iter:   5  x=  -10.139874  g=    0.014847 f(x)=     0.001489
   iter:   6  x=  -10.141114  g=    0.014490 f(x)=     0.000018
   iter:   7  x=  -10.141114  g=    0.014486 f(x)=     0.000000
   iter:   8  x=  -10.141114  g=    0.014486 f(x)=     0.000000
The output lambda is                    ....   -10.141114 (8 iterations)
The final length of the internal step   ....  0.300000000
Converting the step to cartesian space:
 Initial RMS(Int)=    0.0948683298
Transforming coordinates:
 Iter   0:  RMS(Cart)=    0.0774596669 RMS(Int)=    0.0948683298
 Iter   1:  RMS(Cart)=    0.0000000001 RMS(Int)=    0.0000000001
done
Storing new coordinates                 .... done

                                .--------------------.
          ----------------------|Geometry convergence|---------------------
          Item                value                 Tolerance   Converged
          -----------------------------------------------------------------
          RMS gradient        1.17880986            0.00010000      NO
          MAX gradient        1.86386208            0.00030000      NO
          RMS step            0.09486833            0.00200000      NO
          MAX step            0.15000000            0.00400000      NO
          ....................................................
          Max(Bonds)      0.0794      Max(Angles)    0.00
          Max(Dihed)        0.00      Max(Improp)    0.00
          -----------------------------------------------------------------

The optimization has not yet converged - more geometry cycles are needed


    ---------------------------------------------------------------------------
                         Redundant Internal Coordinates
                            (Angstroem and degrees)

        Definition                    Value    dE/dq     Step     New-Value
    ----------------------------------------------------------------------------
     1. B(H   1,C   0)                0.5871 -1.863862  0.0794    0.6664   
     2. B(H   2,C   0)                0.5871 -1.863862  0.0794    0.6664   
     3. B(H   3,C   0)                0.5871 -1.863862  0.0794    0.6664   
     4. B(H   4,C   0)                0.5871 -1.863862  0.0794    0.6664   
     5. A(H   1,C   0,H   3)          109.47  0.000000   -0.00    109.47   
     6. A(H   2,C   0,H   3)          109.47  0.000000   -0.00    109.47   
     7. A(H   1,C   0,H   4)          109.47 -0.000000    0.00    109.47   
     8. A(H   2,C   0,H   4)          109.47  0.000000   -0.00    109.47   
     9. A(H   3,C   0,H   4)          109.47 -0.000000    0.00    109.47   
    10. A(H   1,C   0,H   2)          109.47 -0.000000    0.00    109.47   
    ----------------------------------------------------------------------------

         *************************************************************
         *                GEOMETRY OPTIMIZATION CYCLE   2            *
         *************************************************************
---------------------------------
CARTESIAN COORDINATES (ANGSTROEM)
---------------------------------
  C     -0.296155   -0.022652   -0.000000
  H     -0.518305   -0.633528    0.147072
  H     -0.518304    0.410155    0.455498
  H     -0.518303    0.155419   -0.602571
  H      0.370291   -0.022652    0.000001

----------------------------
CARTESIAN COORDINATES (A.U.)
----------------------------
  NO LB      ZA    FRAG    MASS        X           Y           Z
   0 C     6.0000    0    12.011         -0.559652559625901         -0.042805181958182         -0.000000092837522
   1 H     1.0000    0     1.008         -0.979454580732275         -1.197194241178782          0.277925499099460
   2 H     1.0000    0     1.008         -0.979453457101533          0.775081143216916          0.860766771989755
   3 H     1.0000    0     1.008         -0.979450519547424          0.293698793577963         -1.138694598988914
   4 H     1.0000    0     1.008          0.699748262307133         -0.042806575957914          0.000001992237222

--------------------------------
INTERNAL COORDINATES (ANGSTROEM)
--------------------------------
 C      0   0   0   0.000000     0.000     0.000
 H      1   0   0   0.666446     0.000     0.000
 H      1   2   0   0.666446   109.471     0.000
 H      1   2   3   0.666446   109.471   240.000
 H      1   2   3   0.666446   109.471   120.000

---------------------------
INTERNAL COORDINATES (A.U.)
---------------------------
 C      0   0   0   0.000000     0.000     0.000
 H      1   0   0   1.259401     0.000     0.000
 H      1   2   0   1.259401   109.471     0.000
 H      1   2   3   1.259401   109.471   240.000
 H      1   2   3   1.259401   109.471   120.000


Diagonalization of the overlap matrix:
Smallest eigenvalue                        ... 1.282e-02
Time for diagonalization                   ...    0.001 sec
Threshold for overlap eigenvalues          ... 1.000e-08
Number of eigenvalues below threshold      ... 0
Time for construction of square roots      ...    0.003 sec
Total time needed                          ...    0.003 sec

--------------
SCF ITERATIONS
--------------
ITER       Energy         Delta-E        Max-DP      RMS-DP      [F,P]     Damp
               ***  Starting incremental Fock matrix formation  ***
  0    -38.9751818158   0.000000000000 0.04499670  0.00711271  0.0695402 0.7000
  1    -38.9790581333  -0.003876317485 0.03472370  0.00576253  0.0493919 0.7000
                               ***Turning on DIIS***
  2    -38.9817728923  -0.002714758953 0.08338677  0.01417557  0.0331726 0.0000
  3    -38.9856969364  -0.003924044134 0.01111388  0.00184696  0.0067671 0.0000
                      *** Initiating the SOSCF procedure ***
                           *** Shutting down DIIS ***
                      *** Re-Reading the Fockian *** 
                      *** Removing any level shift *** 
ITER      Energy       Delta-E        Grad      Rot      Max-DP    RMS-DP
  4    -38.98739144  -0.0016945084  0.001365  0.001365  0.004507  0.000859
               *** Restarting incremental Fock matrix formation ***
  5    -38.98820175  -0.0008103093  0.000254  0.000212  0.001752  0.000324
  6    -38.98820262  -0.0000008639  0.000082  0.000087  0.000640  0.000120
  7    -38.98820268  -0.0000000659  0.000009  0.000004  0.000015  0.000002
                  ***Gradient check signals convergence***
              ***Rediagonalizing the Fockian in SOSCF/NRSCF***

               *****************************************************
               *                     SUCCESS                       *
               *           SCF CONVERGED AFTER   8 CYCLES          *
               *****************************************************

Total Energy       :          -38.98820268 Eh           -1060.92293 eV
  Last Energy change         ...   -2.9608e-10  Tolerance :   1.0000e-08
  Last MAX-Density change    ...    3.1791e-06  Tolerance :   1.0000e-07
             **** THE GBW FILE WAS UPDATED (7_CH4_geomopt.gbw) ****
             **** DENSITY FILE WAS UPDATED (7_CH4_geomopt.scfp.tmp) ****
             **** ENERGY FILE WAS UPDATED (7_CH4_geomopt.en.tmp) ****
Total SCF time: 0 days 0 hours 0 min 1 sec 

-------------------------   --------------------
FINAL SINGLE POINT ENERGY       -38.988202684106
-------------------------   --------------------

------------------------------------------------------------------------------
                         ORCA SCF GRADIENT CALCULATION
------------------------------------------------------------------------------

Gradient of the Hartree-Fock SCF energy:
Hartree-Fock type                ... RHF
Number of operators              ...    1
Number of atoms                  ...    5
Basis set dimensions             ...   18
Integral neglect threshold       ... 2.5e-11
Integral primitive cutoff        ... 2.5e-12

Nuclear repulsion gradient       ... done
One Electron Gradient            ... done
Pre-screening matrix             ... done
Starting the two electron gradient:
Two electron gradient done

------------------
CARTESIAN GRADIENT
------------------

   1   C   :   -0.000000014   -0.000000036    0.000000010
   2   H   :    0.381011107    1.047720223   -0.252244459
   3   H   :    0.381010106   -0.742311368   -0.781229586
   4   H   :    0.381007467   -0.305410077    1.033475943
   5   H   :   -1.143028666    0.000001258   -0.000001908

Norm of the cartesian gradient     ...    2.286057303
RMS gradient                       ...    0.590257458
MAX gradient                       ...    1.143028666

-------
TIMINGS
-------

Total SCF gradient time            ...        0.214 sec

One electron gradient       ....       0.003 sec  (  1.5%)
Prescreening matrices       ....       0.002 sec  (  0.7%)
Two electron gradient       ....       0.036 sec  ( 17.1%)
------------------------------------------------------------------------------
                         ORCA GEOMETRY RELAXATION STEP
------------------------------------------------------------------------------

Reading the OPT-File                    .... done
Getting information on internals        .... done
Copying old internal coords+grads       .... done
Making the new internal coordinates     .... (new redundants).... done
Validating the new internal coordinates .... (new redundants).... done
Calculating the B-matrix                .... done
Calculating the G,G- and P matrices     .... done
Transforming gradient to internals      .... done
Projecting the internal gradient        .... done
Number of atoms                         ....   5
Number of internal coordinates          ....  10
Current Energy                          ....   -38.988202684 Eh
Current gradient norm                   ....     2.286057303 Eh/bohr
Maximum allowed component of the step   ....  0.300
Current trust radius                    ....  0.300
Updating the Hessian (BFGS)             .... done
Forming the augmented Hessian           .... done
Diagonalizing the augmented Hessian     .... done
Last element of RFO vector              ....  0.928570023
Lowest eigenvalues of augmented Hessian:
 -0.913756364  0.554831982  0.554831982  0.554831984  0.554831987
Length of the computed step             ....  0.399708425
Warning: the length of the step is outside the trust region - taking restricted step instead
The input lambda is                     ....    -0.913756
   iter:   1  x=   -2.162508  g=    0.055869 f(x)=     0.069767
   iter:   2  x=   -2.733311  g=    0.030894 f(x)=     0.017634
   iter:   3  x=   -2.813338  g=    0.024394 f(x)=     0.001952
   iter:   4  x=   -2.814635  g=    0.023634 f(x)=     0.000031
   iter:   5  x=   -2.814635  g=    0.023621 f(x)=     0.000000
   iter:   6  x=   -2.814635  g=    0.023621 f(x)=     0.000000
   iter:   7  x=   -2.814635  g=    0.023621 f(x)=     0.000000
The output lambda is                    ....    -2.814635 (7 iterations)
The final length of the internal step   ....  0.300000000
Converting the step to cartesian space:
 Initial RMS(Int)=    0.0948683298
Transforming coordinates:
 Iter   0:  RMS(Cart)=    0.0774596669 RMS(Int)=    0.0948683298
 Iter   1:  RMS(Cart)=    0.0000000002 RMS(Int)=    0.0000000003
done
Storing new coordinates                 .... done

                                .--------------------.
          ----------------------|Geometry convergence|---------------------
          Item                value                 Tolerance   Converged
          -----------------------------------------------------------------
          Energy change      -0.88451660            0.00000500      NO
          RMS gradient        0.72291479            0.00010000      NO
          MAX gradient        1.14302867            0.00030000      NO
          RMS step            0.09486833            0.00200000      NO
          MAX step            0.15000000            0.00400000      NO
          ....................................................
          Max(Bonds)      0.0794      Max(Angles)    0.00
          Max(Dihed)        0.00      Max(Improp)    0.00
          -----------------------------------------------------------------

The optimization has not yet converged - more geometry cycles are needed


    ---------------------------------------------------------------------------
                         Redundant Internal Coordinates
                            (Angstroem and degrees)

        Definition                    Value    dE/dq     Step     New-Value
    ----------------------------------------------------------------------------
     1. B(H   1,C   0)                0.6664 -1.143029  0.0794    0.7458   
     2. B(H   2,C   0)                0.6664 -1.143029  0.0794    0.7458   
     3. B(H   3,C   0)                0.6664 -1.143029  0.0794    0.7458   
     4. B(H   4,C   0)                0.6664 -1.143029  0.0794    0.7458   
     5. A(H   1,C   0,H   3)          109.47 -0.000000    0.00    109.47   
     6. A(H   2,C   0,H   3)          109.47  0.000000   -0.00    109.47   
     7. A(H   1,C   0,H   4)          109.47 -0.000000   -0.00    109.47   
     8. A(H   2,C   0,H   4)          109.47  0.000000   -0.00    109.47   
     9. A(H   3,C   0,H   4)          109.47 -0.000000    0.00    109.47   
    10. A(H   1,C   0,H   2)          109.47 -0.000000    0.00    109.47   
    ----------------------------------------------------------------------------

         *************************************************************
         *                GEOMETRY OPTIMIZATION CYCLE   3            *
         *************************************************************
---------------------------------
CARTESIAN COORDINATES (ANGSTROEM)
---------------------------------
  C     -0.296155   -0.022652   -0.000000
  H     -0.544764   -0.706286    0.164589
  H     -0.544763    0.461704    0.509750
  H     -0.544762    0.176628   -0.674340
  H      0.449667   -0.022652    0.000001

----------------------------
CARTESIAN COORDINATES (A.U.)
----------------------------
  NO LB      ZA    FRAG    MASS        X           Y           Z
   0 C     6.0000    0    12.011         -0.559652559600693         -0.042805180047656         -0.000000094122518
   1 H     1.0000    0     1.008         -1.029454786323960         -1.334686893467118          0.311027617868128
   2 H     1.0000    0     1.008         -1.029453526634377          0.872494893721073          0.963287766288349
   3 H     1.0000    0     1.008         -1.029450243787964          0.333777854805029         -1.274317961109771
   4 H     1.0000    0     1.008          0.849748261646993         -0.042806737311328          0.000002242575813

--------------------------------
INTERNAL COORDINATES (ANGSTROEM)
--------------------------------
 C      0   0   0   0.000000     0.000     0.000
 H      1   0   0   0.745823     0.000     0.000
 H      1   2   0   0.745823   109.471     0.000
 H      1   2   3   0.745823   109.471   240.000
 H      1   2   3   0.745823   109.471   120.000

---------------------------
INTERNAL COORDINATES (A.U.)
---------------------------
 C      0   0   0   0.000000     0.000     0.000
 H      1   0   0   1.409401     0.000     0.000
 H      1   2   0   1.409401   109.471     0.000
 H      1   2   3   1.409401   109.471   240.000
 H      1   2   3   1.409401   109.471   120.000


Diagonalization of the overlap matrix:
Smallest eigenvalue                        ... 1.514e-02
Time for diagonalization                   ...    0.001 sec
Threshold for overlap eigenvalues          ... 1.000e-08
Number of eigenvalues below threshold      ... 0
Time for construction of square roots      ...    0.001 sec
Total time needed                          ...    0.002 sec

--------------
SCF ITERATIONS
--------------
ITER       Energy         Delta-E        Max-DP      RMS-DP      [F,P]     Damp
               ***  Starting incremental Fock matrix formation  ***
  0    -39.5184625861   0.000000000000 0.02859992  0.00473177  0.0675260 0.7000
  1    -39.5217160025  -0.003253416402 0.02284594  0.00379291  0.0477713 0.7000
                               ***Turning on DIIS***
  2    -39.5239667745  -0.002250772070 0.05537878  0.00922319  0.0318565 0.0000
  3    -39.5220898687   0.001876905880 0.00941999  0.00132225  0.0063707 0.0000
                      *** Initiating the SOSCF procedure ***
                           *** Shutting down DIIS ***
                      *** Re-Reading the Fockian *** 
                      *** Removing any level shift *** 
ITER      Energy       Delta-E        Grad      Rot      Max-DP    RMS-DP
  4    -39.52886603  -0.0067761649  0.001700  0.001700  0.002954  0.000632
               *** Restarting incremental Fock matrix formation ***
  5    -39.52922718  -0.0003611454  0.000289  0.000232  0.001237  0.000244
  6    -39.52922806  -0.0000008856  0.000089  0.000100  0.000490  0.000097
  7    -39.52922814  -0.0000000770  0.000006  0.000003  0.000010  0.000002
                  ***Gradient check signals convergence***
              ***Rediagonalizing the Fockian in SOSCF/NRSCF***

               *****************************************************
               *                     SUCCESS                       *
               *           SCF CONVERGED AFTER   8 CYCLES          *
               *****************************************************

Total Energy       :          -39.52922814 Eh           -1075.64498 eV
  Last Energy change         ...   -1.9820e-10  Tolerance :   1.0000e-08
  Last MAX-Density change    ...    4.1112e-06  Tolerance :   1.0000e-07
             **** THE GBW FILE WAS UPDATED (7_CH4_geomopt.gbw) ****
             **** DENSITY FILE WAS UPDATED (7_CH4_geomopt.scfp.tmp) ****
             **** ENERGY FILE WAS UPDATED (7_CH4_geomopt.en.tmp) ****
Total SCF time: 0 days 0 hours 0 min 1 sec 

-------------------------   --------------------
FINAL SINGLE POINT ENERGY       -39.529228141687
-------------------------   --------------------

------------------------------------------------------------------------------
                         ORCA SCF GRADIENT CALCULATION
------------------------------------------------------------------------------

Gradient of the Hartree-Fock SCF energy:
Hartree-Fock type                ... RHF
[...]


Summary of corrections to the electronic energy:
(perhaps to be used in another calculation)
Total thermal correction                  0.00285295 Eh       1.79 kcal/mol
Non-thermal (ZPE) correction              0.04732880 Eh      29.70 kcal/mol
-----------------------------------------------------------------------
Total correction                          0.05018176 Eh      31.49 kcal/mol


--------
ENTHALPY
--------

The enthalpy is H = U + kB*T
                kB is Boltzmann's constant
Total free energy                 ...    -40.12084445 Eh 
Thermal Enthalpy correction       ...      0.00094421 Eh       0.59 kcal/mol
-----------------------------------------------------------------------
Total Enthalpy                    ...    -40.11990024 Eh


-------
ENTROPY
-------

The entropy contributions are T*S = T*(S(el)+S(vib)+S(rot)+S(trans)
     S(el)   - electronic entropy
     S(vib)  - vibrational entropy
     S(rot)  - rotational entropy
     S(trans)- translational entropy
The entropies will be listed as mutliplied by the temperature to get
units of energy

Electronic entropy                ...      0.00000000 Eh      0.00 kcal/mol
Vibrational entropy               ...      0.00002318 Eh      0.01 kcal/mol
Rotational entropy                ...      0.00611722 Eh      3.84 kcal/mol
Translational entropy             ...      0.01627961 Eh     10.22 kcal/mol
-----------------------------------------------------------------------
Final entropy term                ...      0.02242001 Eh     14.07 kcal/mol


CAUTION: The rotational entropy is not quite correctly treated here
         because it includes a symmetry number that is not yet correctly
         implemented in ORCA!
For a nonlinear molecule the correct rotational entropy is:
    S(rot) = R*(ln(qrot/sn)+1.5)
    R    = 8.31441 J/mol/K = 1.987191683e-3 kcal/mol/K
    qrot =  435.9290831
    sn is the rotational symmetry number. We have assumed 3 here
       if it is different for your molecule then you should correct
       the printed rotational entropy by manually evaluating the equation
       as given above

For convenience we print out the resulting values for sn=1 - 12:
 sn= 1  qrot/sn=     435.9291 T*S(rot)=     4.49 kcal/mol T*S(tot)=    14.72 kcal/mol
 sn= 2  qrot/sn=     217.9645 T*S(rot)=     4.08 kcal/mol T*S(tot)=    14.31 kcal/mol
 sn= 3  qrot/sn=     145.3097 T*S(rot)=     3.84 kcal/mol T*S(tot)=    14.07 kcal/mol
 sn= 4  qrot/sn=     108.9823 T*S(rot)=     3.67 kcal/mol T*S(tot)=    13.90 kcal/mol
 sn= 5  qrot/sn=      87.1858 T*S(rot)=     3.54 kcal/mol T*S(tot)=    13.77 kcal/mol
 sn= 6  qrot/sn=      72.6548 T*S(rot)=     3.43 kcal/mol T*S(tot)=    13.66 kcal/mol
 sn= 7  qrot/sn=      62.2756 T*S(rot)=     3.34 kcal/mol T*S(tot)=    13.57 kcal/mol
 sn= 8  qrot/sn=      54.4911 T*S(rot)=     3.26 kcal/mol T*S(tot)=    13.49 kcal/mol
 sn= 9  qrot/sn=      48.4366 T*S(rot)=     3.19 kcal/mol T*S(tot)=    13.42 kcal/mol
 sn=10  qrot/sn=      43.5929 T*S(rot)=     3.13 kcal/mol T*S(tot)=    13.36 kcal/mol
 sn=11  qrot/sn=      39.6299 T*S(rot)=     3.07 kcal/mol T*S(tot)=    13.30 kcal/mol
 sn=12  qrot/sn=      36.3274 T*S(rot)=     3.02 kcal/mol T*S(tot)=    13.25 kcal/mol


-------------------
GIBBS FREE ENTHALPY
-------------------

The Gibbs free enthalpy is G = H - T*S

Total enthalpy                    ...    -40.11990024 Eh 
Total entropy correction          ...     -0.02242001 Eh    -14.07 kcal/mol
-----------------------------------------------------------------------
Final Gibbs free enthalpy         ...    -40.14232025 Eh

For completeness - the Gibbs free enthalpy minus the electronic energy
G-E(el)                           ...      0.02870595 Eh     18.01 kcal/mol


Total Time for Numerical Frequencies  :        54.613 sec

-------------------------------------------------------------------------------
                               ORCA SCF HESSIAN
-------------------------------------------------------------------------------

Hessian of the Hartree-Fock SCF energy:
Hartree-Fock type                                ... RHF
Number of operators                              ...    1
Number of atoms                                  ...    5
Basis set dimensions                             ...   18
Integral neglect threshold                       ... 2.5e-11
Integral primitive cutoff                        ... 2.5e-12

Nuclear repulsion Hessian                        ... done   (      0.0 sec)

----------------------------------------------------------
Prepare batch handling over perturbations
----------------------------------------------------------

Batching info for step 0
Memory available                  ...       1024.0 MB
Memory needed per perturbation    ...          0.0 MB
Number of perturbation per batch  ...           15
Number of batches                 ...            1
Storage mode                      ...       InCore

Batching info for step 1
Memory available                  ...       1024.0 MB
Memory needed per perturbation    ...          0.0 MB
Number of perturbation per batch  ...           15
Number of batches                 ...            1
Storage mode                      ...       InCore

Batching info for step 2
Memory available                  ...       1023.9 MB
Memory needed per perturbation    ...          0.0 MB
Number of perturbation per batch  ...           15
Number of batches                 ...            1
Storage mode                      ...       InCore

Batching info for step 3
Memory available                  ...       1023.9 MB
Memory needed per perturbation    ...          0.0 MB
Number of perturbation per batch  ...           15
Number of batches                 ...            1
Storage mode                      ...       InCore

Batching info for step 4
Memory available                  ...       1024.0 MB
Memory needed per perturbation    ...          0.0 MB
Number of perturbation per batch  ...           15
Number of batches                 ...            1
Storage mode                      ...       InCore

Batching info for step 5
Memory available                  ...       1024.0 MB
Memory needed per perturbation    ...          0.0 MB
Number of perturbation per batch  ...           15
Number of batches                 ...            1
Storage mode                      ...       InCore

Batching info for step 6
Memory available                  ...       1024.0 MB
Memory needed per perturbation    ...          0.0 MB
Number of perturbation per batch  ...           15
Number of batches                 ...            1
Storage mode                      ...       InCore


----------------------------------------------
Forming right-hand sides of CP-SCF equations     ...
----------------------------------------------
One electron integral derivatives                ... done   (      0.2 sec)
Transforming the overlap derivative matrices     ... done   (      0.0 sec)
Making the Q(x) pseudodensities                  ... done   (      0.0 sec)
Adding the E*S(x)*S(y) terms to the Hessian      ... done   (      0.0 sec)
Calculating energy weighted overlap derivatives  ... done   (      0.0 sec)
Two electron integral derivatives                ... done   (      0.2 sec)
tr(F(y)Q(x)) contribution to the Hessian         ... done   (      0.0 sec)
Response fock operator R(S(x))                   ... <ss|ss>:    3081 b       0 skpd (  0.0%)    0.004 s ( 0.001 ms/b)
<ss|sp>:    1872 b       0 skpd (  0.0%)    0.007 s ( 0.004 ms/b)
<ss|pp>:     234 b       0 skpd (  0.0%)    0.002 s ( 0.007 ms/b)
<sp|sp>:     300 b       0 skpd (  0.0%)    0.002 s ( 0.007 ms/b)
<sp|pp>:      72 b       0 skpd (  0.0%)    0.001 s ( 0.015 ms/b)
<pp|pp>:       6 b       0 skpd (  0.0%)    0.000 s ( 0.036 ms/b)
done   (      0.2 sec)
tr(F(y)S(x)) contribution to the Hessian         ... done   (      0.0 sec)
Transforming and finalizing RHSs                 ... done   (      0.0 sec)

----------------------------------------------
Solving the CP-SCF equations                     ...
----------------------------------------------
     CP-SCF ITERATION   0: 
     CP-SCF ITERATION   1:      0.000180568
     CP-SCF ITERATION   2:      0.000001681
     CP-SCF ITERATION   3:      0.000000014
     CP-SCF ITERATION   4:      0.000000009

                                                 ... done   (      1.1 sec)
Forming perturbed density Hessian contributions  ... done   (      0.0 sec)
Making the perturbed densities                   ... done   (      0.0 sec)
2nd integral derivative contribs                 ... done   (      0.3 sec)
Dipol derivatives                                ... done   (      0.1 sec)

-------
TIMINGS
-------

Total SCF Hessian time: 0 days 0 hours 0 min 2 sec 
                   F(y)            G[Q(x)]           CPSCF         Total
Table01         0.2  0.09         0.2  0.07         1.1  0.51         2.1 
Table01a        0.2  0.09,        0.2, 0.07,        1.1  0.51         2.1 
Table01b        0.2   9.2,        0.2,  7.2,        1.1  50.9         2.1 

Writing the Hessian file to the disk             ... done


-----------------------
VIBRATIONAL FREQUENCIES
-----------------------

   0:         0.00 cm**-1
   1:         0.00 cm**-1
   2:         0.00 cm**-1
   3:         0.00 cm**-1
   4:         0.00 cm**-1
   5:         0.00 cm**-1
   6:      1488.45 cm**-1
   7:      1488.46 cm**-1
   8:      1488.48 cm**-1
   9:      1664.67 cm**-1
  10:      1664.69 cm**-1
  11:      3138.60 cm**-1
  12:      3280.74 cm**-1
  13:      3280.75 cm**-1
  14:      3280.77 cm**-1


------------
NORMAL MODES
------------

These modes are the cartesian displacements weighted by the diagonal matrix
M(i,i)=1/sqrt(m[i]) where m[i] is the mass of the displaced atom
Thus, these vectors are normalized but *not* orthogonal

                  0          1          2          3          4          5    
      0       0.000000   0.000000   0.000000   0.000000   0.000000   0.000000
      1       0.000000   0.000000   0.000000   0.000000   0.000000   0.000000
      2       0.000000   0.000000   0.000000   0.000000   0.000000   0.000000
      3       0.000000   0.000000   0.000000   0.000000   0.000000   0.000000
      4       0.000000   0.000000   0.000000   0.000000   0.000000   0.000000
      5       0.000000   0.000000   0.000000   0.000000   0.000000   0.000000
      6       0.000000   0.000000   0.000000   0.000000   0.000000   0.000000
      7       0.000000   0.000000   0.000000   0.000000   0.000000   0.000000
      8       0.000000   0.000000   0.000000   0.000000   0.000000   0.000000
      9       0.000000   0.000000   0.000000   0.000000   0.000000   0.000000
     10       0.000000   0.000000   0.000000   0.000000   0.000000   0.000000
     11       0.000000   0.000000   0.000000   0.000000   0.000000   0.000000
     12       0.000000   0.000000   0.000000   0.000000   0.000000   0.000000
     13       0.000000   0.000000   0.000000   0.000000   0.000000   0.000000
     14       0.000000   0.000000   0.000000   0.000000   0.000000   0.000000
                  6          7          8          9         10         11    
      0       0.005480  -0.005445  -0.124625   0.000001  -0.000001  -0.000006
      1      -0.065995   0.105731  -0.007522  -0.000002  -0.000002   0.000007
      2      -0.105856  -0.066198  -0.001762   0.000000  -0.000003   0.000007
      3      -0.092147   0.230288   0.513598   0.440464   0.167950  -0.166682
      4       0.138804   0.049286  -0.209219  -0.193098   0.051629  -0.458331
      5       0.555550   0.185239   0.067652  -0.136736   0.468125   0.110349
      6       0.191060  -0.020565   0.537011  -0.074791  -0.465428  -0.166633
      7      -0.104588  -0.420110   0.164789   0.339667  -0.170853   0.324641
      8       0.066033   0.416433   0.143649  -0.359223  -0.064646   0.341660
      9      -0.168258  -0.140814   0.526457  -0.365688   0.297486  -0.166677
     10       0.432875  -0.377517   0.097669   0.265961   0.401781   0.133605
     11       0.127645  -0.133135  -0.198836   0.213413   0.009061  -0.452092
     12       0.004047  -0.004024  -0.092075  -0.000000   0.000001   0.500065
     13       0.319281  -0.511513   0.036388  -0.412508  -0.282535   0.000003
     14       0.512124   0.320262   0.008530   0.282540  -0.412504   0.000004
                  12         13         14    
      0       0.086255   0.016236  -0.028011
      1       0.030703  -0.066312   0.056110
      2       0.010273   0.061866   0.067493
      3      -0.156120   0.223448  -0.092558
      4      -0.472514   0.591235  -0.226660
      5       0.117458  -0.132738   0.071519
      6       0.012330  -0.016348   0.287167
      7       0.017563   0.024594  -0.559169
      8       0.013872   0.053429  -0.586719
      9      -0.077079  -0.248681  -0.122825
     10       0.082679   0.188189   0.105498
     11      -0.255885  -0.670814  -0.303141
     12      -0.806920  -0.151879   0.261980
     13       0.006424  -0.013873   0.011738
     14       0.002147   0.012944   0.014119


-----------
IR SPECTRUM
-----------

 Mode    freq (cm**-1)   T**2         TX         TY         TZ
-------------------------------------------------------------------
   6:      1488.45   43.507200  (  0.357942   3.670112   5.468944)
   7:      1488.46   29.887482  (  1.622321  -4.493347   2.658080)
   8:      1488.48   42.167667  (  6.329362  -0.445153   1.381550)
   9:      1664.67    3.552197  (  0.586630  -1.525975  -0.937796)
  10:      1664.69    2.120288  ( -0.452140   1.181879   0.720431)
  11:      3138.60    0.000031  ( -0.003679   0.002997   0.002916)
  12:      3280.74   58.125185  (  7.079571   2.805002   0.369893)
  13:      3280.75   60.224737  (  0.843309  -5.683438   5.216522)
  14:      3280.77   56.524231  ( -2.429454   4.444687   5.555785)

The first frequency considered to be a vibration is 6
The total number of vibrations considered is 9


--------------------------
THERMOCHEMISTRY AT 298.15K
--------------------------

Temperature         ... 298.15 K
Pressure            ... 1.00 atm
Total Mass          ... 16.04 AMU

Throughout the following assumptions are being made:
  (1) The electronic state is orbitally nondegenerate
  (2) There are no thermally accessible electronically excited states
  (3) Hindered rotations indicated by low frequency modes) are not
      treated as such but are treated as vibrations and this may
      case some error
  (4) All equations used are the standard statistical mechanics
      equations for an ideal gas
  (5) All vibrations are strinctly harmonic


------------
INNER ENERGY
------------

The inner energy is: U= E(el) + E(ZPE) + E(vib) + E(rot) + E(trans)
    E(el)   - is the total energy from the electronic structure calculation
              = E(kin-el) + E(nuc-el) + E(el-el) + E(nuc-nuc)
    E(ZPE)  - the the zero temperature vibrational energy from the frequency calculation
    E(vib)  - the the finite temperature correction to E(ZPE) due to population
              of excietd vibrational states
    E(rot)  - is the rotational thermal energy
    E(trans)- is the translational thermal energy

Summary of contributions to the inner energy U:
Electronic energy                ...    -40.17102620 Eh
Zero point energy                ...      0.04733035 Eh      29.70 kcal/mol
Thermal vibrational correction   ...      0.00002040 Eh       0.01 kcal/mol
Thermal rotational correction    ...      0.00141627 Eh       0.89 kcal/mol
Thermal translational correction ...      0.00141627 Eh       0.89 kcal/mol
-----------------------------------------------------------------------
Total thermal energy                    -40.12084291 Eh


Summary of corrections to the electronic energy:
(perhaps to be used in another calculation)
Total thermal correction                  0.00285294 Eh       1.79 kcal/mol
Non-thermal (ZPE) correction              0.04733035 Eh      29.70 kcal/mol
-----------------------------------------------------------------------
Total correction                          0.05018329 Eh      31.49 kcal/mol


--------
ENTHALPY
--------

The enthalpy is H = U + kB*T
                kB is Boltzmann's constant
Total free energy                 ...    -40.12084291 Eh 
Thermal Enthalpy correction       ...      0.00094421 Eh       0.59 kcal/mol
-----------------------------------------------------------------------
Total Enthalpy                    ...    -40.11989871 Eh


-------
ENTROPY
-------

The entropy contributions are T*S = T*(S(el)+S(vib)+S(rot)+S(trans)
     S(el)   - electronic entropy
     S(vib)  - vibrational entropy
     S(rot)  - rotational entropy
     S(trans)- translational entropy
The entropies will be listed as mutliplied by the temperature to get
units of energy

Electronic entropy                ...      0.00000000 Eh      0.00 kcal/mol
Vibrational entropy               ...      0.00002317 Eh      0.01 kcal/mol
Rotational entropy                ...      0.00611722 Eh      3.84 kcal/mol
Translational entropy             ...      0.01627961 Eh     10.22 kcal/mol
-----------------------------------------------------------------------
Final entropy term                ...      0.02242000 Eh     14.07 kcal/mol


CAUTION: The rotational entropy is not quite correctly treated here
         because it includes a symmetry number that is not yet correctly
         implemented in ORCA!
For a nonlinear molecule the correct rotational entropy is:
    S(rot) = R*(ln(qrot/sn)+1.5)
    R    = 8.31441 J/mol/K = 1.987191683e-3 kcal/mol/K
    qrot =  435.9290831
    sn is the rotational symmetry number. We have assumed 3 here
       if it is different for your molecule then you should correct
       the printed rotational entropy by manually evaluating the equation
       as given above

For convenience we print out the resulting values for sn=1 - 12:
 sn= 1  qrot/sn=     435.9291 T*S(rot)=     4.49 kcal/mol T*S(tot)=    14.72 kcal/mol
 sn= 2  qrot/sn=     217.9645 T*S(rot)=     4.08 kcal/mol T*S(tot)=    14.31 kcal/mol
 sn= 3  qrot/sn=     145.3097 T*S(rot)=     3.84 kcal/mol T*S(tot)=    14.07 kcal/mol
 sn= 4  qrot/sn=     108.9823 T*S(rot)=     3.67 kcal/mol T*S(tot)=    13.90 kcal/mol
 sn= 5  qrot/sn=      87.1858 T*S(rot)=     3.54 kcal/mol T*S(tot)=    13.77 kcal/mol
 sn= 6  qrot/sn=      72.6548 T*S(rot)=     3.43 kcal/mol T*S(tot)=    13.66 kcal/mol
 sn= 7  qrot/sn=      62.2756 T*S(rot)=     3.34 kcal/mol T*S(tot)=    13.57 kcal/mol
 sn= 8  qrot/sn=      54.4911 T*S(rot)=     3.26 kcal/mol T*S(tot)=    13.49 kcal/mol
 sn= 9  qrot/sn=      48.4366 T*S(rot)=     3.19 kcal/mol T*S(tot)=    13.42 kcal/mol
 sn=10  qrot/sn=      43.5929 T*S(rot)=     3.13 kcal/mol T*S(tot)=    13.36 kcal/mol
 sn=11  qrot/sn=      39.6299 T*S(rot)=     3.07 kcal/mol T*S(tot)=    13.30 kcal/mol
 sn=12  qrot/sn=      36.3274 T*S(rot)=     3.02 kcal/mol T*S(tot)=    13.25 kcal/mol


-------------------
GIBBS FREE ENTHALPY
-------------------

The Gibbs free enthalpy is G = H - T*S

Total enthalpy                    ...    -40.11989871 Eh 
Total entropy correction          ...     -0.02242000 Eh    -14.07 kcal/mol
-----------------------------------------------------------------------
Final Gibbs free enthalpy         ...    -40.14231871 Eh

For completeness - the Gibbs free enthalpy minus the electronic energy
G-E(el)                           ...      0.02870750 Eh     18.01 kcal/mol


Timings for individual modules:

Sum of individual times         ...       30.400 sec (=   0.507 min)
GTO integral calculation        ...        5.013 sec (=   0.084 min)  16.5 %
SCF iterations                  ...       17.007 sec (=   0.283 min)  55.9 %
SCF Gradient evaluation         ...        3.663 sec (=   0.061 min)  12.1 %
Geometry relaxation             ...        1.432 sec (=   0.024 min)   4.7 %
Analytical frequency calculation...        3.284 sec (=   0.055 min)  10.8 %
                             ****ORCA TERMINATED NORMALLY****
TOTAL RUN TIME: 0 days 0 hours 1 minutes 24 seconds 923 msec
