
                                 *****************
                                 * O   R   C   A *
                                 *****************

           --- An Ab Initio, DFT and Semiempirical electronic structure package ---

                  #######################################################
                  #                        -***-                        #
                  #          Department of theory and spectroscopy      #
                  #               Directorship: Frank Neese             #
                  #        Max Planck Institute fuer Kohlenforschung    #
                  #                Kaiser Wilhelm Platz 1               #
                  #                 D-45470 Muelheim/Ruhr               #
                  #                      Germany                        #
                  #                                                     #
                  #                  All rights reserved                #
                  #                        -***-                        #
                  #######################################################


                         Program Version 4.2.1 -  RELEASE  -


 With contributions from (in alphabetic order):
   Daniel Aravena         : Magnetic Suceptibility
   Michael Atanasov       : Ab Initio Ligand Field Theory (pilot matlab implementation)
   Alexander A. Auer      : GIAO ZORA, VPT2
   Ute Becker             : Parallelization
   Giovanni Bistoni       : ED, misc. LED, open-shell LED, HFLD
   Martin Brehm           : Molecular dynamics
   Dmytro Bykov           : SCF Hessian
   Vijay G. Chilkuri      : MRCI spin determinant printing, contributions to CSF-ICE
   Dipayan Datta          : RHF DLPNO-CCSD density
   Achintya Kumar Dutta   : EOM-CC, STEOM-CC
   Dmitry Ganyushin       : Spin-Orbit,Spin-Spin,Magnetic field MRCI
   Miquel Garcia          : C-PCM Hessian, Gaussian charge scheme
   Yang Guo               : DLPNO-NEVPT2, CIM, IAO-localization
   Andreas Hansen         : Spin unrestricted coupled pair/coupled cluster methods
   Benjamin Helmich-Paris : CASSCF linear response (MC-RPA)
   Lee Huntington         : MR-EOM, pCC
   Robert Izsak           : Overlap fitted RIJCOSX, COSX-SCS-MP3, EOM
   Christian Kollmar      : KDIIS, OOCD, Brueckner-CCSD(T), CCSD density
   Simone Kossmann        : Meta GGA functionals, TD-DFT gradient, OOMP2, MP2 Hessian
   Martin Krupicka        : AUTO-CI
   Lucas Lang             : DCDCAS
   Dagmar Lenk            : GEPOL surface, SMD
   Dimitrios Liakos       : Extrapolation schemes; Compound Job, initial MDCI parallelization
   Dimitrios Manganas     : Further ROCIS development; embedding schemes
   Dimitrios Pantazis     : SARC Basis sets
   Taras Petrenko         : DFT Hessian,TD-DFT gradient, ASA, ECA, R-Raman, ABS, FL, XAS/XES, NRVS
   Peter Pinski           : DLPNO-MP2, DLPNO-MP2 Gradient
   Christoph Reimann      : Effective Core Potentials
   Marius Retegan         : Local ZFS, SOC
   Christoph Riplinger    : Optimizer, TS searches, QM/MM, DLPNO-CCSD(T), (RO)-DLPNO pert. Triples
   Tobias Risthaus        : Range-separated hybrids, TD-DFT gradient, RPA, STAB
   Michael Roemelt        : Original ROCIS implementation
   Masaaki Saitow         : Open-shell DLPNO-CCSD energy and density
   Barbara Sandhoefer     : DKH picture change effects
   Avijit Sen             : IP-ROCIS
   Kantharuban Sivalingam : CASSCF convergence, NEVPT2, FIC-MRCI
   Bernardo de Souza      : ESD, SOC TD-DFT
   Georgi Stoychev        : AutoAux, RI-MP2 NMR
   Willem Van den Heuvel  : Paramagnetic NMR
   Boris Wezisla          : Elementary symmetry handling
   Frank Wennmohs         : Technical directorship


 We gratefully acknowledge several colleagues who have allowed us to
 interface, adapt or use parts of their codes:
   Stefan Grimme, W. Hujo, H. Kruse,             : VdW corrections, initial TS optimization,
                  C. Bannwarth                     DFT functionals, gCP, sTDA/sTD-DF
   Ed Valeev, F. Pavosevic, A. Kumar             : LibInt (2-el integral package), F12 methods
   Garnet Chan, S. Sharma, J. Yang, R. Olivares  : DMRG
   Ulf Ekstrom                                   : XCFun DFT Library
   Mihaly Kallay                                 : mrcc  (arbitrary order and MRCC methods)
   Andreas Klamt, Michael Diedenhofen            : otool_cosmo (COSMO solvation model)
   Jiri Pittner, Ondrej Demel                    : Mk-CCSD
   Frank Weinhold                                : gennbo (NPA and NBO analysis)
   Christopher J. Cramer and Donald G. Truhlar   : smd solvation model
   Lars Goerigk                                  : TD-DFT with DH, B97 family of functionals
   V. Asgeirsson, H. Jonsson                     : NEB implementation
   FAccTs GmbH                                   : IRC, NEB, NEB-TS, Multilevel, MM, QM/MM, CI optimization
   S Lehtola, MJT Oliveira, MAL Marques          : LibXC Library


 Your calculation uses the libint2 library for the computation of 2-el integrals
 For citations please refer to: http://libint.valeyev.net

 Your ORCA version has been built with support for libXC version: 4.2.3
 For citations please refer to: https://tddft.org/programs/libxc/

 This ORCA versions uses:
   CBLAS   interface :  Fast vector & matrix operations
   LAPACKE interface :  Fast linear algebra routines
   SCALAPACK package :  Parallel linear algebra routines




***************************************
The coordinates will be read from file: optimized_mta.xyz
***************************************


----- Orbital basis set information -----
Your calculation utilizes the basis: def2-SVP
   F. Weigend and R. Ahlrichs, Phys. Chem. Chem. Phys. 7, 3297 (2005).

================================================================================
                                        WARNINGS
                       Please study these warnings very carefully!
================================================================================


WARNING: Analytical and numerical frequencies both set to true
  ===> : Disabling Anfreq
WARNING: Gradients needed for Numerical Frequencies
  ===> : Setting RunTyp to EnGrad
INFO   : Checking CIS options ...

WARNING: The environment variable RSH_COMMAND is not set!
  ===> : All Displacements for the Numerical Hessian calculation
         will be started on localhost

WARNING: CIS/ROCIS methods need fully converged wavefunctions
  ===> : Setting SCFConvForced true
         You can overwrite this default with %scf ConvForced false 


INFO   : the flag for use of LIBINT has been found!

================================================================================
                                       INPUT FILE
================================================================================
NAME = tddft.inp
|  1> ! RHF b3lyp def2-SVP LARGEPRINT PRINTBASIS PRINTGAP TightSCF ALLPOP AnFreq NumFreq bohrs
|  2> 
|  3> %pal nprocs 16
|  4> end
|  5> 
|  6> %tddft 
|  7>   NRoots 25
|  8> end
|  9> 
| 10> %plots Format Cube
| 11>   MO("HOMO-8.cube",8,0);
| 12>   MO("LUMO-9.cube",9,0);
| 13> end
| 14> 
| 15> * xyzfile 0 1 optimized_mta.xyz
| 16> 
| 17>                          ****END OF INPUT****
================================================================================

                     *******************************
                     * Energy+Gradient Calculation *
                     *******************************

---------------------------------
CARTESIAN COORDINATES (ANGSTROEM)
---------------------------------
  N      0.478339    0.041707    0.071506
  C     -0.291775    0.030996    0.053378
  H     -0.497925    0.576675    0.064677
  H     -0.497738   -0.233726    0.530950
  H     -0.537142   -0.235858   -0.410283
  H      0.673404   -0.461955    0.061309
  H      0.672836    0.282132   -0.371537

----------------------------
CARTESIAN COORDINATES (A.U.)
----------------------------
  NO LB      ZA    FRAG     MASS         X           Y           Z
   0 N     7.0000    0    14.007    0.903930    0.078815    0.135127
   1 C     6.0000    0    12.011   -0.551374    0.058574    0.100869
   2 H     1.0000    0     1.008   -0.940941    1.089758    0.122222
   3 H     1.0000    0     1.008   -0.940589   -0.441678    1.003350
   4 H     1.0000    0     1.008   -1.015051   -0.445707   -0.775323
   5 H     1.0000    0     1.008    1.272550   -0.872968    0.115858
   6 H     1.0000    0     1.008    1.271475    0.533153   -0.702103

--------------------------------
INTERNAL COORDINATES (ANGSTROEM)
--------------------------------
 N      0   0   0     0.000000000000     0.00000000     0.00000000
 C      1   0   0     0.770401515278     0.00000000     0.00000000
 H      2   1   0     0.583430493060   109.86162833     0.00000000
 H      2   1   3     0.583587300672   109.86744430   243.17447627
 H      2   1   3     0.588555474882   116.20495065   121.59042920
 H      1   2   3     0.540212666830   110.33742710   179.98621268
 H      1   2   3     0.540296516664   110.28789799   296.30417904

---------------------------
INTERNAL COORDINATES (A.U.)
---------------------------
 N      0   0   0     0.000000000000     0.00000000     0.00000000
 C      1   0   0     1.455847877033     0.00000000     0.00000000
 H      2   1   0     1.102523850061   109.86162833     0.00000000
 H      2   1   3     1.102820173505   109.86744430   243.17447627
 H      2   1   3     1.112208662147   116.20495065   121.59042920
 H      1   2   3     1.020853994384   110.33742710   179.98621268
 H      1   2   3     1.021012447607   110.28789799   296.30417904

---------------------
BASIS SET INFORMATION
---------------------
There are 3 groups of distinct atoms

 Group   1 Type N   : 7s4p1d contracted to 3s2p1d pattern {511/31/1}
 Group   2 Type C   : 7s4p1d contracted to 3s2p1d pattern {511/31/1}
 Group   3 Type H   : 4s1p contracted to 2s1p pattern {31/1}

Atom   0N    basis set group =>   1
Atom   1C    basis set group =>   2
Atom   2H    basis set group =>   3
Atom   3H    basis set group =>   3
Atom   4H    basis set group =>   3
Atom   5H    basis set group =>   3
Atom   6H    basis set group =>   3

-------------------------
BASIS SET IN INPUT FORMAT
-------------------------

 # Basis set for element : H 
 NewGTO H 
 S 3 
   1      13.0107010000      0.0334854848
   2       1.9622572000      0.2347218709
   3       0.4445379600      0.8137702853
 S 1 
   1       0.1219496200      1.0000000000
 P 1 
   1       0.8000000000      1.0000000000
  end;

 # Basis set for element : C 
 NewGTO C 
 S 5 
   1    1238.4016938000      0.0055173650
   2     186.2900499200      0.0410888285
   3      42.2511763460      0.1822538213
   4      11.6765579320      0.4682845944
   5       3.5930506482      0.4457581734
 S 1 
   1       0.4024514736      1.0000000000
 S 1 
   1       0.1309018267      1.0000000000
 P 3 
   1       9.4680970621      0.0568883320
   2       2.0103545142      0.3129405934
   3       0.5477100471      0.7606501651
 P 1 
   1       0.1526861379      1.0000000000
 D 1 
   1       0.8000000000      1.0000000000
  end;

 # Basis set for element : N 
 NewGTO N 
 S 5 
   1    1712.8415853000     -0.0054477995
   2     257.6481267700     -0.0406271746
   3      58.4582458530     -0.1811196225
   4      16.1983679050     -0.4684397556
   5       5.0052600809     -0.4461684629
 S 1 
   1       0.5873185657      1.0000000000
 S 1 
   1       0.1876459225      1.0000000000
 P 3 
   1      13.5714702330     -0.0588481170
   2       2.9257372874     -0.3202462476
   3       0.7992775075     -0.7532822652
 P 1 
   1       0.2195434803      1.0000000000
 D 1 
   1       1.0000000000      1.0000000000
  end;



           ************************************************************
           *        Program running with 16 parallel MPI-processes    *
           *              working on a common directory               *
           ************************************************************
------------------------------------------------------------------------------
                           ORCA GTO INTEGRAL CALCULATION
------------------------------------------------------------------------------

                         BASIS SET STATISTICS AND STARTUP INFO

 # of primitive gaussian shells          ...   49
 # of primitive gaussian functions       ...   83
 # of contracted shells                  ...   27
 # of contracted basis functions         ...   53
 Highest angular momentum                ...    2
 Maximum contraction depth               ...    5
 Integral package used                   ... LIBINT
 Integral threshhold            Thresh   ...  2.500e-11
 Primitive cut-off              TCut     ...  2.500e-12


------------------------------ INTEGRAL EVALUATION ----------------------------


 * One electron integrals 
 Pre-screening matrix                    ... done
 Shell pair data                         ... done (   0.000 sec)



           ************************************************************
           *        Program running with 16 parallel MPI-processes    *
           *              working on a common directory               *
           ************************************************************
-------------------------------------------------------------------------------
                                 ORCA SCF
-------------------------------------------------------------------------------

------------
SCF SETTINGS
------------
Hamiltonian:
 Density Functional     Method          .... DFT(GTOs)
 Exchange Functional    Exchange        .... B88
   X-Alpha parameter    XAlpha          ....  0.666667
   Becke's b parameter  XBeta           ....  0.004200
 Correlation Functional Correlation     .... LYP
 LDA part of GGA corr.  LDAOpt          .... VWN-5
 Gradients option       PostSCFGGA      .... off
 Hybrid DFT is turned on
   Fraction HF Exchange ScalHFX         ....  0.200000
   Scaling of DF-GGA-X  ScalDFX         ....  0.720000
   Scaling of DF-GGA-C  ScalDFC         ....  0.810000
   Scaling of DF-LDA-C  ScalLDAC        ....  1.000000
   Perturbative correction              ....  0.000000
   Density functional embedding theory  .... OFF
   NL short-range parameter             ....  4.800000


General Settings:
 Integral files         IntName         .... tddft
 Hartree-Fock type      HFTyp           .... RHF
 Total Charge           Charge          ....    0
 Multiplicity           Mult            ....    1
 Number of Electrons    NEL             ....   18
 Basis Dimension        Dim             ....   53
 Nuclear Repulsion      ENuc            ....     79.1614594384 Eh

Convergence Acceleration:
 DIIS                   CNVDIIS         .... on
   Start iteration      DIISMaxIt       ....    12
   Startup error        DIISStart       ....  0.200000
   # of expansion vecs  DIISMaxEq       ....     5
   Bias factor          DIISBfac        ....   1.050
   Max. coefficient     DIISMaxC        ....  10.000
 Newton-Raphson         CNVNR           .... off
 SOSCF                  CNVSOSCF        .... on
   Start iteration      SOSCFMaxIt      ....   150
   Startup grad/error   SOSCFStart      ....  0.003300
 Level Shifting         CNVShift        .... on
   Level shift para.    LevelShift      ....    0.2500
   Turn off err/grad.   ShiftErr        ....    0.0010
 Zerner damping         CNVZerner       .... off
 Static damping         CNVDamp         .... on
   Fraction old density DampFac         ....    0.7000
   Max. Damping (<1)    DampMax         ....    0.9800
   Min. Damping (>=0)   DampMin         ....    0.0000
   Turn off err/grad.   DampErr         ....    0.1000
 Fernandez-Rico         CNVRico         .... off

SCF Procedure:
 Maximum # iterations   MaxIter         ....   125
 SCF integral mode      SCFMode         .... Direct
   Integral package                     .... LIBINT
 Reset frequency        DirectResetFreq ....    20
 Integral Threshold     Thresh          ....  2.500e-11 Eh
 Primitive CutOff       TCut            ....  2.500e-12 Eh

Convergence Tolerance:
 Convergence Check Mode ConvCheckMode   .... Total+1el-Energy
 Convergence forced     ConvForced      .... 1
 Energy Change          TolE            ....  1.000e-08 Eh
 1-El. energy change                    ....  1.000e-05 Eh
 Orbital Gradient       TolG            ....  1.000e-05
 Orbital Rotation angle TolX            ....  1.000e-05
 DIIS Error             TolErr          ....  5.000e-07


Diagonalization of the overlap matrix:
Smallest eigenvalue                        ... 4.666e-04
Time for diagonalization                   ...    0.001 sec
Threshold for overlap eigenvalues          ... 1.000e-08
Number of eigenvalues below threshold      ... 0
Time for construction of square roots      ...    0.068 sec
Total time needed                          ...    0.069 sec

-------------------
DFT GRID GENERATION
-------------------

General Integration Accuracy     IntAcc      ...  4.340
Radial Grid Type                 RadialGrid  ... Gauss-Chebyshev
Angular Grid (max. acc.)         AngularGrid ... Lebedev-110
Angular grid pruning method      GridPruning ... 3 (G Style)
Weight generation scheme         WeightScheme... Becke
Basis function cutoff            BFCut       ...    1.0000e-11
Integration weight cutoff        WCut        ...    1.0000e-14
Grids for H and He will be reduced by one unit

# of grid points (after initial pruning)     ...   7328 (   0.0 sec)
# of grid points (after weights+screening)   ...   6896 (   0.0 sec)
nearest neighbour list constructed           ...    0.0 sec
Grid point re-assignment to atoms done       ...    0.0 sec
Grid point division into batches done        ...    0.0 sec
Reduced shell lists constructed in    0.0 sec

Total number of grid points                  ...     6896
Total number of batches                      ...      112
Average number of points per batch           ...       61
Average number of grid points per atom       ...      985
Average number of shells per batch           ...    23.38 (86.57%)
Average number of basis functions per batch  ...    46.12 (87.03%)
Average number of large shells per batch     ...    23.00 (98.40%)
Average number of large basis fcns per batch ...    45.50 (98.64%)
Maximum spatial batch extension              ...  10.98, 11.99, 15.09 au
Average spatial batch extension              ...   0.18,  0.20,  0.21 au

Time for grid setup =    0.277 sec

------------------------------
INITIAL GUESS: MODEL POTENTIAL
------------------------------
Loading Hartree-Fock densities                     ... done
Calculating cut-offs                               ... done
Setting up the integral package                    ... done
Initializing the effective Hamiltonian             ... done
Starting the Coulomb interaction                   ... done (   0.0 sec)
Reading the grid                                   ... done
Mapping shells                                     ... done
Starting the XC term evaluation                    ... done (   0.0 sec)
  promolecular density results
     # of electrons  =     17.990345864
     EX              =    -14.259844844
     EC              =     -0.627515559
     EX+EC           =    -14.887360402
Transforming the Hamiltonian                       ... done (   0.0 sec)
Diagonalizing the Hamiltonian                      ... done (   0.0 sec)
Back transforming the eigenvectors                 ... done (   0.0 sec)
Now organizing SCF variables                       ... done
                      ------------------
                      INITIAL GUESS DONE (   0.5 sec)
                      ------------------
----------------------
INITIAL GUESS ORBITALS
----------------------
                      0         1         2         3         4         5   
                 -15.16462 -11.10950  -1.90070  -1.50066  -1.44516  -1.26421
                   2.00000   2.00000   2.00000   2.00000   2.00000   2.00000
                  --------  --------  --------  --------  --------  --------
  0N   1s        -0.986156 -0.014900  0.310806  0.000170  0.051834 -0.069960
  0N   2s         0.026364 -0.005387  0.140825  0.001852 -0.067281  0.336759
  0N   3s        -0.039215 -0.004061 -0.448356 -0.000262 -0.468228  0.206983
  0N   1pz        0.006197 -0.000055  0.132600  0.315841  0.397099  0.039856
  0N   1px        0.012254 -0.011941  0.317056  0.001734 -0.450806 -0.210988
  0N   1py        0.003598 -0.000025  0.077187 -0.545221  0.229152  0.024327
  0N   2pz        0.002107 -0.002110  0.098100  0.062521  0.052571 -0.036379
  0N   2px       -0.000001  0.003445  0.004577  0.000210  0.037382 -0.017831
  0N   2py        0.001235 -0.001223  0.057074 -0.107025  0.030539 -0.021088
  0N   1dz2      -0.001217  0.003150 -0.011686  0.062444  0.054278  0.012786
  0N   1dxz       0.001864 -0.001549  0.046613  0.031244  0.007657 -0.040268
  0N   1dyz       0.001422 -0.000344  0.009391 -0.041403  0.028856  0.002376
  0N   1dx2y2     0.003728 -0.005860  0.030957  0.036240 -0.060773 -0.019295
  0N   1dxy       0.001075 -0.000905  0.026979 -0.053507  0.004127 -0.022895
  1C   1s         0.003557 -0.982112 -0.275396 -0.000731  0.181681 -0.211151
  1C   2s        -0.022907  0.059202  0.043986 -0.001294  0.248157 -0.448220
  1C   3s         0.036576  0.037755  0.133634  0.000076  0.440992 -0.746582
  1C   1pz        0.001153 -0.001261 -0.026032 -0.243720 -0.367615 -0.085490
  1C   1px        0.000232 -0.018959  0.434624 -0.000359 -0.107665 -0.691826
  1C   1py        0.000662 -0.000752 -0.016233  0.422121 -0.212082 -0.048854
  1C   2pz       -0.000526  0.001332 -0.042294  0.005124  0.058643  0.051038
  1C   2px        0.004466 -0.001869  0.048713 -0.000385  0.008643  0.015474
  1C   2py       -0.000324  0.000772 -0.025358 -0.009742  0.032984  0.029380
  1C   1dz2      -0.002613  0.002833 -0.038836 -0.013947 -0.009173  0.035488
  1C   1dxz       0.006578 -0.000484  0.051818  0.026996  0.034079 -0.029071
  1C   1dyz      -0.001524  0.000994 -0.017245  0.009243  0.001255  0.015973
  1C   1dx2y2     0.002741 -0.003767  0.047438 -0.007863  0.016915 -0.044333
  1C   1dxy       0.003815 -0.000264  0.029806 -0.047281  0.020087 -0.015874
  2H   1s         0.007313 -0.032988  0.197345  0.052205 -0.203547  0.417293
  2H   2s        -0.007131 -0.008470 -0.008232  0.034317 -0.154889  0.145613
  2H   1pz        0.001551  0.000012  0.017726  0.024150  0.040581 -0.007944
  2H   1px       -0.002475 -0.002745 -0.024751  0.028812  0.004269  0.089711
  2H   1py       -0.000943  0.010391 -0.038075 -0.030679  0.043361 -0.059888
  3H   1s         0.007285 -0.032989  0.196910 -0.050654 -0.203427  0.416015
  3H   2s        -0.007180 -0.008458 -0.009971 -0.033869 -0.156612  0.145302
  3H   1pz       -0.000026  0.008996 -0.024222  0.014367  0.057846 -0.054971
  3H   1px       -0.002462 -0.002738 -0.024763 -0.028552  0.004331  0.090535
  3H   1py        0.001813 -0.005207  0.034739 -0.036239  0.013446  0.023114
  4H   1s         0.002807 -0.035866  0.162417  0.001176 -0.111952  0.477134
  4H   2s        -0.008167 -0.006226 -0.053456 -0.001042  0.021841  0.247970
  4H   1pz       -0.001841 -0.008820  0.010598  0.024694  0.002665  0.074946
  4H   1px        0.002219 -0.004977  0.015955  0.000182  0.035436  0.079854
  4H   1py       -0.001050 -0.005064  0.006269 -0.042860  0.001856  0.043313
  5H   1s         0.010842 -0.003400  0.324070 -0.178063  0.243520 -0.081141
  5H   2s         0.004977 -0.001924  0.062829 -0.133493  0.074756  0.013648
  5H   1pz        0.002346  0.000402  0.007795  0.001441  0.028496  0.003058
  5H   1px       -0.002815 -0.000836 -0.004639 -0.019457 -0.015953 -0.045833
  5H   1py        0.006417  0.000315  0.070196 -0.045627  0.036201 -0.040296
  6H   1s         0.010825 -0.003379  0.323914  0.176980  0.243848 -0.083010
  6H   2s         0.004957 -0.001933  0.063054  0.133884  0.074951  0.013403
  6H   1pz        0.006734  0.000473  0.064954  0.038327  0.045758 -0.033859
  6H   1px       -0.002801 -0.000839 -0.004615  0.019690 -0.015647 -0.045703
  6H   1py       -0.001128  0.000178 -0.027748 -0.024033  0.007025  0.023014
                      6         7         8         9        10        11   
                  -1.19182  -0.86766  -0.63208  -0.03135   0.01251   0.02999
                   2.00000   2.00000   2.00000   0.00000   0.00000   0.00000
                  --------  --------  --------  --------  --------  --------
  0N   1s        -0.135331 -0.000063  0.081518  0.083645  0.001378  0.037718
  0N   2s        -0.031044 -0.000506  0.280840  0.291841  0.015423 -0.084081
  0N   3s         0.555535 -0.002593  0.241141 -0.480496 -0.066699  1.204180
  0N   1pz        0.138274 -0.258128 -0.632143  0.021613  0.104813  0.097983
  0N   1px        0.526378  0.001781 -0.186507 -0.063562  0.000466 -0.069086
  0N   1py        0.079227  0.446289 -0.367156  0.018530 -0.189749  0.043057
  0N   2pz       -0.063330  0.008699  0.182358  0.010181 -0.088897  0.217568
  0N   2px       -0.191903  0.000807  0.033440  0.522237  0.016546  0.012367
  0N   2py       -0.036587 -0.014938  0.104282 -0.023993  0.122084  0.117295
  0N   1dz2      -0.011960 -0.033003 -0.027817 -0.001766  0.016283  0.004919
  0N   1dxz       0.055454 -0.016967 -0.040356 -0.010189  0.029557  0.022285
  0N   1dyz       0.005907  0.021781 -0.040098  0.005691 -0.011051 -0.004503
  0N   1dx2y2     0.027897 -0.019056  0.001923  0.008848  0.010180 -0.010385
  0N   1dxy       0.032085  0.029663 -0.023469 -0.003908 -0.054365  0.008930
  1C   1s        -0.099764 -0.000121  0.017148 -0.095923 -0.004101  0.048234
  1C   2s        -0.207152  0.000370  0.038275  0.061808 -0.001920  0.120046
  1C   3s        -0.619277  0.005906 -0.114668  5.518345  0.274983 -3.438501
  1C   1pz       -0.457290 -0.347090 -0.411187 -0.040950 -0.126584 -0.256670
  1C   1px        0.157691  0.000981  0.027363 -0.116297 -0.006536  0.103623
  1C   1py       -0.267516  0.597310 -0.238026 -0.029906  0.255498 -0.127446
  1C   2pz        0.054819  0.063167  0.005766 -0.013284 -0.213897 -0.747337
  1C   2px       -0.102745 -0.000288 -0.011341 -0.037027  0.005433 -0.015000
  1C   2py        0.031742 -0.107278  0.003655  0.028027  0.489659 -0.374259
  1C   1dz2       0.003252 -0.015684  0.012613 -0.010132  0.010396 -0.032950
  1C   1dxz      -0.001652 -0.024698  0.021972  0.004708 -0.002854 -0.012644
  1C   1dyz      -0.006866  0.010791  0.023162  0.005459 -0.002580 -0.033608
  1C   1dx2y2    -0.013543 -0.008516  0.005600  0.028142  0.005003  0.020744
  1C   1dxy      -0.000704  0.041817  0.013310  0.003527  0.007947 -0.005941
  2H   1s        -0.037968  0.399185 -0.241951  0.097931 -0.055155 -0.061467
  2H   2s         0.046736  0.135978 -0.046949 -1.678222 -1.808151  2.388599
  2H   1pz        0.043685  0.015455  0.015236  0.002797  0.021137  0.032534
  2H   1px       -0.039029  0.000982 -0.000180  0.037697  0.014303 -0.030311
  2H   1py        0.023017 -0.115928  0.055422 -0.039312 -0.041289  0.043472
  3H   1s        -0.035586 -0.401371 -0.240373  0.097325  0.065962 -0.050832
  3H   2s         0.046985 -0.140953 -0.046101 -1.626101  1.446278  2.625890
  3H   1pz        0.041034  0.092864  0.054987 -0.031947  0.016821  0.057215
  3H   1px       -0.038717 -0.000677 -0.000227  0.037137 -0.010258 -0.031524
  3H   1py        0.026929 -0.072259 -0.014148  0.022191 -0.039944  0.001737
  4H   1s         0.271369  0.001625  0.376059  0.120275  0.004698 -0.106167
  4H   2s         0.159073  0.000655  0.135614 -1.758599  0.097559 -1.114818
  4H   1pz        0.077575  0.015977  0.073908  0.042646  0.022680  0.024270
  4H   1px       -0.011396  0.000288  0.011804  0.036392  0.000974 -0.012402
  4H   1py        0.045216 -0.027270  0.042770  0.024771 -0.041386  0.011608
  5H   1s        -0.318241  0.389548 -0.097703  0.031434  0.092550  0.029413
  5H   2s         0.007245 -0.063368  0.014851 -0.824948  1.341990 -0.569609
  5H   1pz       -0.002480 -0.006139  0.003516  0.015633  0.010009  0.028257
  5H   1px        0.068799 -0.026833  0.008422 -0.031064 -0.014493 -0.009677
  5H   1py       -0.045171  0.079006 -0.016794  0.025404 -0.038889  0.024865
  6H   1s        -0.317149 -0.389787 -0.098190  0.038461 -0.093042  0.020569
  6H   2s         0.006364  0.063265  0.015940 -0.714535 -1.346105 -0.671466
  6H   1pz       -0.040122 -0.065761 -0.013359  0.026876  0.026178  0.037550
  6H   1px        0.069115  0.027059  0.008620 -0.031460  0.013342 -0.008045
  6H   1py        0.020134  0.044364  0.011679  0.004257 -0.030141  0.010670
                     12        13        14        15        16        17   
                   0.05630   0.12085   0.13407   0.24709   0.26952   0.41231
                   0.00000   0.00000   0.00000   0.00000   0.00000   0.00000
                  --------  --------  --------  --------  --------  --------
  0N   1s        -0.079020 -0.003436  0.044386  0.007322 -0.001172 -0.000173
  0N   2s         0.131616  0.017424 -0.039133  0.094074  0.002748 -0.182396
  0N   3s        -2.538392 -0.575685  3.950271  0.868388 -0.015437  2.919101
  0N   1pz        0.035870  0.110666 -0.005642 -0.153069  0.040586 -0.440093
  0N   1px        0.034796 -0.033594  0.241685 -0.044486 -0.003529 -0.044484
  0N   1py        0.014776 -0.183456 -0.038972 -0.084186 -0.075919 -0.261087
  0N   2pz        0.254788 -0.544121  0.125253  0.521280  0.545300 -1.526228
  0N   2px        0.179772  0.133845 -0.833241 -0.616622 -0.016631 -0.906634
  0N   2py        0.152129  0.889609  0.214562  0.345159 -0.881955 -0.908070
  0N   1dz2      -0.000063 -0.021201 -0.045291 -0.043029  0.038671  0.043469
  0N   1dxz       0.009289  0.017773  0.023488 -0.030200 -0.007641 -0.022830
  0N   1dyz      -0.015806  0.020070 -0.012477 -0.071829 -0.029961  0.046174
  0N   1dx2y2    -0.017546 -0.022813  0.053368 -0.012407  0.021939 -0.021636
  0N   1dxy       0.003322 -0.037252  0.006760 -0.018774  0.010117 -0.014013
  1C   1s        -0.030809  0.007000 -0.064005  0.019078  0.002386  0.036965
  1C   2s         0.008044  0.038375 -0.128081 -0.354125 -0.020125 -0.763373
  1C   3s         4.848786  0.998237 -6.998599 -1.665676  0.054487 -2.353541
  1C   1pz       -0.205099  0.107011 -0.047119  0.168108  0.144230  0.042962
  1C   1px       -0.126707 -0.009750  0.077509 -0.064707 -0.002874  0.035786
  1C   1py       -0.111262 -0.168170 -0.060756  0.107348 -0.230801  0.029196
  1C   2pz       -0.689076  1.108221 -0.164838 -3.128113 -1.665471  0.803155
  1C   2px        0.642154  0.423206 -3.067288 -0.534641  0.004355 -0.713104
  1C   2py       -0.399763 -1.871686 -0.368041 -1.918236  2.619456  0.464725
  1C   1dz2       0.013438 -0.089743 -0.084817 -0.058966  0.081313  0.046081
  1C   1dxz      -0.050355  0.032441  0.007073 -0.012782 -0.006480  0.118024
  1C   1dyz      -0.038065  0.067730 -0.015774 -0.110046 -0.060383  0.065141
  1C   1dx2y2    -0.068736 -0.069185  0.090870 -0.034102  0.045690 -0.005060
  1C   1dxy      -0.029735 -0.057916 -0.006354 -0.008312  0.009283  0.069026
  2H   1s         0.081116  0.066997  0.001455  0.181176 -0.283469 -0.152609
  2H   2s        -0.138503  4.037582  1.448158  2.756885 -1.960988  0.536953
  2H   1pz        0.010938  0.014053  0.007698 -0.076878 -0.044565  0.096394
  2H   1px        0.038714  0.006469 -0.043403  0.013854 -0.026283 -0.023685
  2H   1py        0.018870  0.085854 -0.007810  0.054975 -0.063657 -0.055306
  3H   1s         0.085187 -0.067232 -0.010003  0.161730  0.295083 -0.145373
  3H   2s        -0.122766 -4.282653  0.446362  2.644877  2.104123  0.506602
  3H   1pz        0.021568 -0.076159 -0.022257  0.004080  0.078447  0.002052
  3H   1px        0.036815  0.004320 -0.042763  0.011865  0.028651 -0.023048
  3H   1py       -0.000900  0.027537  0.016018 -0.094703 -0.000974  0.111102
  4H   1s         0.019397 -0.008785  0.046511 -0.367797 -0.013327  0.268085
  4H   2s        -3.878948  0.067061 -0.701088 -4.730126 -0.173160 -0.343487
  4H   1pz        0.050529  0.011224  0.034260  0.109451 -0.038606 -0.036830
  4H   1px        0.044842  0.002829 -0.026299 -0.020533  0.000540  0.034708
  4H   1py        0.028156 -0.025641  0.014021  0.059749  0.074447 -0.019503
  5H   1s        -0.087207  0.090346  0.023203  0.181012 -0.241088 -0.133128
  5H   2s         0.684691  1.935753  1.789257  0.031918  1.583376 -0.159807
  5H   1pz       -0.000089 -0.009045 -0.009683  0.065628  0.028295  0.000295
  5H   1px        0.014151 -0.009184  0.057573 -0.016989  0.029384  0.057354
  5H   1py       -0.061500 -0.109633  0.006642 -0.052722  0.077431  0.053253
  6H   1s        -0.091307 -0.093839  0.002887  0.161180  0.255790 -0.128554
  6H   2s         0.631019 -2.362818  1.184778  0.155027 -1.595254 -0.146914
  6H   1pz       -0.051387  0.096780  0.027268 -0.005661 -0.084655  0.045997
  6H   1px        0.014285 -0.005596  0.057555 -0.012809 -0.032218  0.055670
  6H   1py        0.029099 -0.040847 -0.023064  0.080959  0.020996 -0.026536
                     18        19        20        21        22        23   
                   0.44762   0.48537   0.52528   0.61402   0.63945   0.68788
                   0.00000   0.00000   0.00000   0.00000   0.00000   0.00000
                  --------  --------  --------  --------  --------  --------
  0N   1s         0.038409 -0.001377 -0.056324 -0.086642  0.005231 -0.164106
  0N   2s        -0.053649 -0.008358 -0.450416 -0.696462  0.055074 -1.814018
  0N   3s         3.534028 -0.008272 -4.294950  2.456622 -0.354011 13.237083
  0N   1pz       -0.015027  0.161226  0.017693 -0.254960 -0.028170  0.136917
  0N   1px       -0.097848  0.003662  0.075341 -0.066472 -0.000581  0.222069
  0N   1py       -0.005778 -0.269041  0.016541 -0.153910  0.058424 -0.055863
  0N   2pz       -0.030029  0.881888 -0.161676 -1.273220 -0.598880  0.417654
  0N   2px       -1.213444  0.033948  3.577573  0.706796  0.045795 -2.649717
  0N   2py       -0.015448 -1.486070 -0.075041 -0.727532  1.071724 -0.173329
  0N   1dz2      -0.005008  0.032463 -0.021073 -0.050655 -0.047914  0.026913
  0N   1dxz       0.005839  0.008787 -0.004304 -0.006291  0.053452  0.041308
  0N   1dyz      -0.002858 -0.023031  0.047159 -0.029790  0.031443  0.032774
  0N   1dx2y2     0.006712  0.020533  0.090936  0.045862 -0.028117 -0.090091
  0N   1dxy       0.004996 -0.016754 -0.001130 -0.008330 -0.093632 -0.018096
  1C   1s        -0.158227 -0.000582 -0.077910 -0.018565  0.000095  0.052969
  1C   2s         1.448672  0.015098  1.950530  0.339058  0.022117 -1.740900
  1C   3s       -20.861231  0.039374  8.259107 -2.226719  0.487038-17.249338
  1C   1pz        0.008180 -0.272852  0.308281 -0.460518 -0.068856  0.188837
  1C   1px       -0.299839  0.001323  0.348684  0.092455  0.005947 -0.400066
  1C   1py        0.006300  0.484166  0.172880 -0.267939  0.134587  0.026199
  1C   2pz       -0.141672  0.957242 -1.646877  2.301446 -0.027406 -1.322980
  1C   2px        0.764161  0.014034  2.509135  0.198562  0.056106 -2.787546
  1C   2py       -0.081522 -1.739897 -0.921969  1.363958  0.025888 -0.120560
  1C   1dz2       0.008144  0.071400  0.049949 -0.032491  0.064061 -0.038879
  1C   1dxz       0.027357 -0.081189  0.038096 -0.128705 -0.066565  0.021646
  1C   1dyz       0.003913 -0.048266  0.051105 -0.159962 -0.040563  0.068194
  1C   1dx2y2    -0.003492  0.040589 -0.028911 -0.128637  0.038212  0.066993
  1C   1dxy       0.018270  0.137266  0.020538 -0.073523  0.121105 -0.013337
  2H   1s         0.158467 -0.112841  0.102205  0.333479 -0.705399  0.009275
  2H   2s         5.549799  3.092395  0.768916 -1.295150  0.271438  2.847101
  2H   1pz        0.011970 -0.050668  0.039669 -0.140330 -0.033055  0.053100
  2H   1px       -0.022203 -0.030967 -0.001535  0.043472  0.221961  0.036509
  2H   1py        0.024145 -0.067860  0.059088  0.128109 -0.077448 -0.065470
  3H   1s         0.163249  0.116639  0.104550  0.360654  0.690669 -0.011275
  3H   2s         5.534675 -3.057991  0.836445 -1.229970 -0.431826  4.235018
  3H   1pz        0.028892  0.083562  0.071008  0.039818  0.084371 -0.092815
  3H   1px       -0.023930  0.029355 -0.003268  0.031060 -0.222280 -0.029339
  3H   1py       -0.001010  0.007195  0.005039 -0.183935 -0.005099  0.069799
  4H   1s         0.224071 -0.001621  0.042813 -0.433994  0.011253  0.003296
  4H   2s         5.068030 -0.032135 -3.090219  4.768379 -0.124386  1.613846
  4H   1pz       -0.034312 -0.050586 -0.104391  0.100047 -0.029195  0.027026
  4H   1px       -0.022637 -0.000566  0.070253  0.060861 -0.003829  0.068256
  4H   1py       -0.018053  0.086519 -0.058906  0.056734  0.044954 -0.033861
  5H   1s         0.026641 -0.137450 -0.277427 -0.194577  0.762541 -0.057906
  5H   2s         0.537473 -2.360522 -1.972834 -0.960045  0.874676 -0.654686
  5H   1pz       -0.001694  0.018542 -0.081981  0.174205 -0.047527 -0.107632
  5H   1px        0.046876  0.037956 -0.006994 -0.076393  0.201019 -0.099191
  5H   1py        0.054514  0.107017  0.076084  0.023977 -0.128850 -0.004048
  6H   1s         0.025131  0.134234 -0.279730 -0.229423 -0.746181 -0.122151
  6H   2s         0.524954  2.322790 -2.021833 -0.966165 -0.824607  0.048888
  6H   1pz        0.042646 -0.103846  0.024246  0.117619  0.130077  0.038820
  6H   1px        0.044008 -0.041933 -0.010120 -0.084189 -0.192999 -0.107283
  6H   1py       -0.028704  0.036452 -0.107263  0.137976 -0.024260 -0.077631
                     24        25        26        27        28        29   
                   0.70287   0.76573   0.89780   1.09289   1.10184   1.55915
                   0.00000   0.00000   0.00000   0.00000   0.00000   0.00000
                  --------  --------  --------  --------  --------  --------
  0N   1s        -0.032962  0.027454  0.143378  0.000799  0.044179  0.000024
  0N   2s        -0.359480  0.391051  0.712556 -0.001130 -0.024059 -0.001605
  0N   3s         2.588506 -5.714809 -1.274098  0.060587  2.364107 -0.013375
  0N   1pz       -0.286409 -0.102302 -0.275345 -0.148623 -0.066863 -0.158403
  0N   1px        0.056469  0.618169  0.045027  0.003944  0.116186  0.000210
  0N   1py        0.516345 -0.071972 -0.160487  0.253244 -0.043622  0.275629
  0N   2pz       -0.945720 -0.612538  0.134408  0.272284  0.042477  0.707130
  0N   2px       -0.482993  2.357780  0.276502 -0.027405 -0.938488  0.004262
  0N   2py        1.682454 -0.396475  0.066274 -0.463493  0.034138 -1.232297
  0N   1dz2       0.132328 -0.007373  0.066741  0.038084  0.055275 -0.106439
  0N   1dxz      -0.075848 -0.086904  0.234810  0.038954 -0.028349  0.052523
  0N   1dyz      -0.078450 -0.046122  0.108238 -0.024838  0.003793  0.072230
  0N   1dx2y2     0.053890 -0.046647  0.006202  0.018704 -0.093192 -0.058754
  0N   1dxy       0.138416 -0.053251  0.134680 -0.069790 -0.012630 -0.090175
  1C   1s         0.010001 -0.051729 -0.032896  0.000903  0.008006 -0.001291
  1C   2s        -0.341574  0.806730 -0.166720 -0.019801 -0.651705 -0.008152
  1C   3s        -3.269588  8.696961  2.712765 -0.057700 -2.307483  0.032943
  1C   1pz       -0.154251  0.024821 -0.125087 -0.013085 -0.038373 -0.317210
  1C   1px       -0.090633 -0.404465 -0.256829  0.002286  0.019324  0.001224
  1C   1py        0.324805  0.004704 -0.074117  0.018201 -0.019913  0.548828
  1C   2pz        1.198665  1.055952 -0.876609 -0.105922  0.142598 -1.019383
  1C   2px       -0.520013  2.992898  0.692138 -0.013268 -0.380163  0.004434
  1C   2py       -2.457176  0.682156 -0.484947  0.184799  0.076316  1.773382
  1C   1dz2       0.128253 -0.159713 -0.053821  0.137033  0.024449 -0.214420
  1C   1dxz      -0.055133 -0.013873  0.002851 -0.094194  0.225216  0.061090
  1C   1dyz      -0.082387 -0.054472  0.011353 -0.087902  0.142453  0.145496
  1C   1dx2y2     0.097201  0.205391  0.100018  0.081262  0.110229 -0.125595
  1C   1dxy       0.096694 -0.008950  0.003367  0.178485  0.124284 -0.113927
  2H   1s        -0.122940 -0.278502  0.085452  0.354660  0.131490 -0.492471
  2H   2s         4.098612 -1.451097  0.080674 -0.149326  0.103235 -1.082959
  2H   1pz       -0.089184 -0.045321  0.115275  0.227836 -0.406660  0.020898
  2H   1px       -0.128875 -0.042403 -0.335590  0.264883  0.030823  0.460573
  2H   1py       -0.146034 -0.089966 -0.108284  0.190651  0.039390 -0.448978
  3H   1s         0.115848 -0.288965  0.088084 -0.342568  0.156482  0.493314
  3H   2s        -2.799545 -1.280399  0.118739  0.153763  0.084939  1.070672
  3H   1pz        0.143304 -0.106279 -0.034071 -0.285796 -0.149958  0.375601
  3H   1px        0.128041 -0.043259 -0.333760 -0.263653  0.041377 -0.459088
  3H   1py        0.032542  0.003823  0.153317 -0.123033 -0.360211 -0.239959
  4H   1s        -0.005506  0.061070 -0.778882 -0.012247 -0.435036  0.002525
  4H   2s         0.371715  0.931763 -1.172632  0.010208  0.656190 -0.002091
  4H   1pz       -0.096874  0.101628  0.107394  0.235348  0.245635  0.207347
  4H   1px        0.012479 -0.265670  0.390067 -0.007075 -0.235648 -0.000954
  4H   1py        0.179333  0.052474  0.063227 -0.391783  0.155094 -0.355562
  5H   1s        -0.105107  0.275730 -0.309198 -0.301068 -0.349587 -0.537507
  5H   2s         1.800495 -1.479800 -0.195675 -0.108394  0.111338  0.392336
  5H   1pz        0.127127  0.121042 -0.164188  0.246763 -0.506900 -0.256139
  5H   1px       -0.028854 -0.033822 -0.100923  0.247899  0.197301 -0.576812
  5H   1py        0.170351 -0.171399  0.055893  0.385421  0.146072  0.259138
  6H   1s         0.076074  0.272646 -0.310978  0.287375 -0.357545  0.540738
  6H   2s        -1.992650 -1.410473 -0.180611  0.117654  0.102063 -0.397774
  6H   1pz       -0.217136 -0.081057 -0.035010 -0.463182 -0.102150 -0.091659
  6H   1px       -0.019673 -0.033210 -0.104389 -0.235193  0.211571  0.574697
  6H   1py       -0.046959  0.190346 -0.168441 -0.049246 -0.504381  0.359844
                     30        31        32        33        34        35   
                   1.60638   1.66319   1.71714   1.76563   1.94064   1.98575
                   0.00000   0.00000   0.00000   0.00000   0.00000   0.00000
                  --------  --------  --------  --------  --------  --------
  0N   1s        -0.027739  0.176810 -0.001240 -0.053757 -0.083672  0.000052
  0N   2s        -0.247211 -1.291275  0.068388  2.712134 -0.067591 -0.003461
  0N   3s         2.546506  2.708196 -0.288154-11.150308  4.419388 -0.000710
  0N   1pz       -0.033959  0.022119  0.075737 -0.457873 -0.124549 -0.052965
  0N   1px        0.404733 -0.057912 -0.006923 -0.194662  0.108414 -0.002193
  0N   1py       -0.019005  0.011812 -0.154818 -0.259640 -0.069234  0.085907
  0N   2pz        0.847181 -0.947337 -0.147549  0.708411  0.511378 -0.216424
  0N   2px       -1.432229  0.269091  0.098027  3.773929 -2.733367  0.002916
  0N   2py        0.489856 -0.549025  0.287972  0.390486  0.291845  0.373439
  0N   1dz2       0.021994  0.108399 -0.169143  0.101551 -0.209759 -0.098335
  0N   1dxz       0.077800  0.098951 -0.009769 -0.162464  0.007920  0.003653
  0N   1dyz      -0.011147 -0.012294  0.113380 -0.070455 -0.067503  0.063028
  0N   1dx2y2    -0.054009 -0.210519 -0.101118 -0.245022  0.287025 -0.058487
  0N   1dxy       0.045868  0.056459  0.004290 -0.092925  0.006023 -0.008870
  1C   1s         0.222276  0.291304  0.000306  0.098306 -0.058652  0.000890
  1C   2s         0.686760  1.121287  0.042601  2.410589 -1.051763  0.014318
  1C   3s       -10.368067 -6.139983  0.379053 12.815368 -9.220256 -0.024362
  1C   1pz       -0.378189  0.402669 -0.037031  0.062372  0.332142 -0.171387
  1C   1px        0.297029 -0.255112 -0.011148 -0.340654  0.560922 -0.001815
  1C   1py       -0.215679  0.233207  0.066581  0.033452  0.191561  0.294532
  1C   2pz       -1.417977  1.125910 -0.129739  0.250078  0.774196 -0.330349
  1C   2px       -0.110807  0.366829  0.046425  1.927720 -1.249994  0.001671
  1C   2py       -0.817233  0.656563  0.252874  0.142978  0.437118  0.581536
  1C   1dz2      -0.081473 -0.386599 -0.065370  0.278924 -0.144772 -0.332603
  1C   1dxz       0.115330 -0.019116  0.024146 -0.011141 -0.183273 -0.022176
  1C   1dyz       0.231263 -0.242621  0.048316 -0.020455 -0.437490  0.220828
  1C   1dx2y2     0.409448  0.391994 -0.052191 -0.504065 -0.256103 -0.188976
  1C   1dxy       0.068385 -0.010440 -0.041255 -0.003404 -0.110193  0.035415
  2H   1s         0.572322  0.052274 -0.176451 -0.116439 -0.163497 -0.113856
  2H   2s         2.810880  0.955601 -0.215885 -2.168381  0.933707 -0.441513
  2H   1pz        0.193371 -0.159157  0.808812 -0.149403 -0.359388  0.349110
  2H   1px       -0.400472  0.018242  0.099024 -0.055742 -0.613339 -0.641822
  2H   1py        0.607578  0.210725 -0.113906  0.132330 -0.528214 -0.804905
  3H   1s         0.573785  0.052009  0.174728 -0.126118 -0.163535  0.111495
  3H   2s         2.804086  0.967575  0.071982 -2.161618  0.916171  0.448290
  3H   1pz        0.621925  0.101526 -0.310555  0.052946 -0.641258  0.527060
  3H   1px       -0.398724  0.015184 -0.092849 -0.054758 -0.617464  0.648965
  3H   1py       -0.144188 -0.244977 -0.764872 -0.157548 -0.051908 -0.707927
  4H   1s        -0.094799  0.443816  0.002505  0.081222  0.463330  0.000787
  4H   2s         0.813810  2.476200 -0.038500 -1.369134  2.197997  0.012700
  4H   1pz       -0.018208 -0.762714 -0.401341 -0.222312 -0.727389  0.127940
  4H   1px       -0.053381 -0.192295  0.009337  0.276585  0.061419 -0.001692
  4H   1py       -0.006553 -0.440821  0.691646 -0.148768 -0.415296 -0.224127
  5H   1s         0.351086 -0.239964 -0.155578  0.258319  0.198518  0.316990
  5H   2s         0.432902 -0.279030  0.421905 -0.186805  0.966096  0.622928
  5H   1pz       -0.051728  0.096486  0.530087 -0.526395 -0.245331 -0.159117
  5H   1px        0.547211 -0.369332 -0.192400 -0.415608  0.401420  0.434426
  5H   1py       -0.174815  0.437126 -0.222940 -0.717527 -0.170303  0.342673
  6H   1s         0.353472 -0.231206  0.168627  0.253815  0.201633 -0.317379
  6H   2s         0.430459 -0.287852 -0.434934 -0.151782  0.971464 -0.622364
  6H   1pz       -0.175716  0.424548 -0.112377 -0.879833 -0.270139 -0.221564
  6H   1px        0.553932 -0.363276  0.166895 -0.421278  0.395213 -0.436257
  6H   1py        0.038679 -0.144610 -0.573311 -0.066402 -0.115955  0.303174
                     36        37        38        39        40        41   
                   2.11850   2.16351   2.27557   2.32003   2.45919   2.50741
                   0.00000   0.00000   0.00000   0.00000   0.00000   0.00000
                  --------  --------  --------  --------  --------  --------
  0N   1s         0.059257  0.001884 -0.001485  0.025688 -0.000371  0.005416
  0N   2s        -0.767820 -0.024743  0.028236 -0.066871 -0.065196  2.152373
  0N   3s        -1.856817  0.030339 -0.077460  1.563658  0.127768 -3.733175
  0N   1pz        0.239439 -0.242316  0.108363 -0.558369 -0.038803 -0.137686
  0N   1px        0.275033  0.003396  0.001993  0.072775 -0.013106  0.441457
  0N   1py        0.132804  0.419971 -0.159899 -0.334491  0.088921 -0.069760
  0N   2pz        0.126387  0.829345 -0.040461  0.927362  0.130941  0.073428
  0N   2px        0.715382  0.003243  0.015519 -0.802436 -0.003917  0.088349
  0N   2py        0.090082 -1.423489  0.027953  0.541966 -0.234081  0.024112
  0N   1dz2       0.213634 -0.031975 -0.471034 -0.248434 -0.497418  0.279987
  0N   1dxz      -0.345529 -0.081781 -0.074193 -0.088169  0.314474  0.446756
  0N   1dyz      -0.114526  0.012344  0.332989 -0.610764  0.315053  0.246999
  0N   1dx2y2    -0.506446 -0.031093 -0.272304 -0.314173 -0.272337 -0.233822
  0N   1dxy      -0.197788  0.131842  0.144741 -0.050260 -0.576346  0.232983
  1C   1s         0.009920  0.001675 -0.000096 -0.008046  0.000422 -0.028262
  1C   2s        -0.182994  0.008432 -0.000342 -0.419709  0.043130 -1.810314
  1C   3s         5.582162  0.001176  0.087478 -1.813114 -0.192482  6.117872
  1C   1pz        0.106071  0.117220  0.488077 -0.868500  0.012059 -0.003529
  1C   1px       -0.616424 -0.006755  0.000410 -0.149518  0.030306 -0.883003
  1C   1py        0.060169 -0.217754 -0.804238 -0.521263 -0.005408  0.010381
  1C   2pz       -0.053784  0.373736  0.810261 -1.549807  0.224456  0.380616
  1C   2px       -0.111930 -0.006397  0.015180 -0.739526  0.003580 -0.154212
  1C   2py       -0.027998 -0.696497 -1.318914 -0.928454 -0.407958  0.212501
  1C   1dz2      -0.286331 -0.000050 -0.921774 -0.871864  0.000312 -0.228456
  1C   1dxz       0.339257 -0.064326  0.119187 -0.089186 -0.670815 -0.961381
  1C   1dyz       0.152801 -0.012949  0.661146 -1.278336  0.017944  0.161685
  1C   1dx2y2     0.654767  0.011713 -0.540718 -0.025499 -0.029199  0.620194
  1C   1dxy       0.190674  0.127341 -0.229501 -0.055255  1.235468 -0.496218
  2H   1s         0.232365  0.317398 -0.314592 -0.241613  0.089768  0.555482
  2H   2s        -1.330415  0.822613  1.859545  1.201337  0.351890 -1.566609
  2H   1pz       -0.223985  0.240408 -0.847568  1.200644 -0.285538 -0.387814
  2H   1px        0.307743  0.213728  0.188018  0.214452 -0.986057  1.173027
  2H   1py       -0.024201  0.375217  0.010042  0.048480  0.291159 -0.035578
  3H   1s         0.244689 -0.321952  0.330060 -0.231607 -0.114431  0.540732
  3H   2s        -1.330183 -0.799574 -1.934719  1.126633 -0.261992 -1.559248
  3H   1pz       -0.118971 -0.428919  0.383456  0.665460 -0.108261 -0.247661
  3H   1px        0.308590 -0.208214 -0.176723  0.211582  0.903748  1.237770
  3H   1py       -0.175974 -0.005628  0.687482  1.047727  0.397608 -0.305020
  4H   1s        -0.201278 -0.001841 -0.009238  0.633549 -0.020317  0.542986
  4H   2s        -1.066692 -0.029291  0.034033 -2.111671  0.048169 -1.320807
  4H   1pz       -0.234175 -0.430863 -0.522065 -0.000701 -0.221588 -0.283416
  4H   1px        1.501263  0.015752 -0.018356  0.358457  0.002636 -0.066144
  4H   1py       -0.140022  0.750912  0.903958  0.016728  0.407169 -0.155804
  5H   1s         0.182078 -0.224289 -0.426151 -0.233143 -0.053058 -0.144313
  5H   2s        -0.102731 -1.345963 -0.107068  0.351901 -0.115461  0.441339
  5H   1pz        0.224395 -1.020291  0.551094 -0.706272  0.094130 -0.033268
  5H   1px        0.260497  0.324620  0.573174  0.328620 -0.760167  0.750237
  5H   1py        0.341444  0.697690  0.427526  0.111172  0.439111 -0.337716
  6H   1s         0.182338  0.215327  0.435719 -0.210952  0.060244 -0.150049
  6H   2s        -0.124866  1.337538  0.105846  0.348389  0.084227  0.462647
  6H   1pz        0.405655 -0.083038 -0.641260 -0.291609 -0.405735 -0.324118
  6H   1px        0.257336 -0.319672 -0.569546  0.316697  0.708077  0.808415
  6H   1py       -0.001003  1.219730 -0.228077 -0.699677  0.131162  0.165283
                     42        43        44        45        46        47   
                   2.78731   2.84629   3.07058   3.16637   3.35626   3.66476
                   0.00000   0.00000   0.00000   0.00000   0.00000   0.00000
                  --------  --------  --------  --------  --------  --------
  0N   1s        -0.063324  0.000443 -0.064129 -0.043745 -0.000521  0.139014
  0N   2s         0.787842 -0.037043 -1.589446 -2.096251 -0.004965  3.109164
  0N   3s         0.385573 -0.021048 -0.078144 -3.488241  0.023033  4.245031
  0N   1pz        0.538671  0.030106 -0.950668 -0.154066 -0.711817 -0.622272
  0N   1px        0.900450 -0.015171 -0.307554 -1.094964  0.003257  1.417967
  0N   1py        0.309263 -0.082180 -0.554802 -0.082404  1.224148 -0.357818
  0N   2pz       -0.483148 -0.573883 -0.090160 -0.345009 -0.268487 -0.444396
  0N   2px       -0.269184  0.014687  0.320853  1.775285 -0.011492 -1.241715
  0N   2py       -0.264280  0.996731 -0.058860 -0.208908  0.467850 -0.258805
  0N   1dz2       0.686603  0.989704 -0.106610  0.649754  0.153309 -0.278313
  0N   1dxz       0.198998  0.414518 -0.440605 -1.064453 -0.948288 -1.254480
  0N   1dyz       0.267078 -0.653393 -0.836085  1.203761 -0.110509  0.429078
  0N   1dx2y2    -0.856200  0.580713 -0.786230  0.228816  0.084266  0.967998
  0N   1dxy       0.102737 -0.741521 -0.258734 -0.601534  1.645310 -0.724533
  1C   1s         0.148608 -0.001218  0.029044 -0.049169  0.000287  0.101615
  1C   2s         0.581338  0.054856  3.825803  5.991224 -0.006125 -8.999509
  1C   3s         0.093842 -0.006564 -0.615316  2.529235 -0.027706 -2.131322
  1C   1pz       -0.387596  0.452711  0.084727 -0.867664 -0.134963 -0.525880
  1C   1px        0.584944 -0.002726  0.910782  0.568709  0.004172 -1.477646
  1C   1py       -0.229945 -0.799040  0.051087 -0.488103  0.230772 -0.304910
  1C   2pz       -0.308816  0.051805  0.297414  0.409414  0.505510  0.686125
  1C   2px        0.286631  0.005605  0.492341  1.206207 -0.005636 -1.010591
  1C   2py       -0.171874 -0.070188  0.180685  0.230277 -0.879282  0.392172
  1C   1dz2       0.439647 -1.269519  0.901672 -0.719854 -1.163585  0.770044
  1C   1dxz       0.268464 -0.083958 -1.710823 -0.973138 -1.489619 -1.483237
  1C   1dyz      -0.647097  0.845148  1.546713 -0.611693  0.787397  0.316591
  1C   1dx2y2    -1.537866 -0.708152  0.262032  0.565084 -0.679779 -0.961506
  1C   1dxy       0.152401  0.110134 -1.000347 -0.551274  2.574504 -0.860531
  2H   1s        -0.465716 -0.743300 -0.903841 -1.198316  0.629180  1.281725
  2H   2s         0.457278  0.182149  0.135199 -0.121922  0.748872 -0.422468
  2H   1pz        0.501216 -0.450642 -1.147276  0.349097 -0.621447 -0.291006
  2H   1px       -0.720450 -0.224112  0.190380  0.409093 -1.053252  0.096835
  2H   1py       -0.450310 -0.130840  0.193989  0.354178 -0.637274 -0.136871
  3H   1s        -0.453047  0.725344 -0.900310 -1.209991 -0.629762  1.284487
  3H   2s         0.466777 -0.187119  0.150238 -0.125234 -0.740939 -0.428291
  3H   1pz       -0.133573  0.351777 -0.418372  0.475245  0.856434 -0.268018
  3H   1px       -0.714456  0.247570  0.178025  0.413331  1.051738  0.093318
  3H   1py        0.656429  0.313681 -1.095121  0.123765  0.214180 -0.179846
  4H   1s        -0.741104  0.000249 -0.946623 -0.608934 -0.002962  2.327829
  4H   2s        -0.612311  0.019230  0.809362  0.421905  0.001440  0.660252
  4H   1pz        0.072402 -0.635078  0.367617 -0.254758 -0.615491  0.676359
  4H   1px       -0.731458  0.000682 -1.307248 -0.332583 -0.007744 -0.851154
  4H   1py        0.052031  1.092684  0.201467 -0.154781  1.073056  0.387149
  5H   1s        -0.475086  0.477385 -0.292522  0.115294  0.441532 -0.014440
  5H   2s        -0.135558  0.784070 -0.179716 -0.451788 -0.280855  0.065219
  5H   1pz        0.386025 -0.434894 -0.325896  0.902693  0.222693  0.482590
  5H   1px        0.692195 -0.417133  0.289304 -0.142186  0.501831 -0.814971
  5H   1py        0.485229 -0.385990  0.375403 -0.151125 -0.229118  0.147679
  6H   1s        -0.485277 -0.460302 -0.281279  0.113519 -0.439398 -0.008725
  6H   2s        -0.157306 -0.786833 -0.177434 -0.431521  0.285768  0.067274
  6H   1pz        0.622488  0.546769  0.160451  0.306699  0.089586  0.367521
  6H   1px        0.703540  0.401351  0.290705 -0.152011 -0.495976 -0.821385
  6H   1py        0.091817  0.188333 -0.474810  0.858114 -0.319330  0.344653
                     48        49        50        51        52   
                   4.55301   5.16046   5.25069   5.56911   5.70517
                   0.00000   0.00000   0.00000   0.00000   0.00000
                  --------  --------  --------  --------  --------
  0N   1s         0.037665 -0.040838 -0.001648  0.000389 -0.178716
  0N   2s         2.031394 -0.931895 -0.079875  0.028331-11.297761
  0N   3s        -2.550471  0.044375 -0.010804  0.020707 -2.753983
  0N   1pz        0.023530 -0.219713 -0.032424  1.179934 -1.245933
  0N   1px        1.123893  0.018132  0.006620 -0.001472  0.903935
  0N   1py        0.010831 -0.117905  0.028970 -2.021266 -0.734271
  0N   2pz        0.143717  0.019156 -0.277109 -0.955072  1.152676
  0N   2px        0.312905 -0.471798 -0.013223 -0.005087 -0.470058
  0N   2py        0.085959 -0.002850  0.494276  1.630242  0.672438
  0N   1dz2      -0.411705  0.334177  0.152308  0.774353  0.279092
  0N   1dxz       0.054680 -0.120441 -0.089039 -0.936838  0.866549
  0N   1dyz      -0.008455  0.389593 -0.089025 -0.510617  0.757430
  0N   1dx2y2     0.702052 -0.143004  0.083740  0.442224  0.379657
  0N   1dxy       0.034873 -0.077865  0.162835  1.605656  0.509553
  1C   1s        -0.011775  0.016191  0.000270  0.000477 -0.038300
  1C   2s         8.026938 -0.439923  0.010209 -0.023256  2.385365
  1C   3s         0.968691 -0.876126 -0.030766 -0.014116 -0.912390
  1C   1pz        0.438498  2.939365 -1.723305 -0.256277 -0.026500
  1C   1px       -3.167395  0.676259  0.011711  0.004316  0.535828
  1C   1py        0.250716  1.624240  3.104096  0.463597 -0.035960
  1C   2pz        0.130923  0.352562 -0.066427  0.294822 -0.253655
  1C   2px        0.390982 -0.229087 -0.005416 -0.002821 -0.136289
  1C   2py        0.074579  0.199298  0.128404 -0.489418 -0.158451
  1C   1dz2       0.482656 -0.670090 -1.219811 -0.580267 -0.310093
  1C   1dxz      -0.029828 -1.003498  0.385458 -0.773857  0.930704
  1C   1dyz      -0.073526 -1.275943  0.786978  0.383261 -0.300932
  1C   1dx2y2    -0.920373 -0.256390 -0.700642 -0.335301  0.212114
  1C   1dxy      -0.013949 -0.565617 -0.691506  1.316209  0.549955
  2H   1s        -3.853629 -2.554455 -5.258328  0.207230  0.231640
  2H   2s         0.013999  0.167714  0.537440  0.113540  0.133940
  2H   1pz        0.023673  0.424497 -0.194453 -0.274655  0.282302
  2H   1px       -0.382855 -0.190754 -0.652125 -0.339159  0.067088
  2H   1py        1.027153  0.908287  1.768331 -0.334554 -0.223132
  3H   1s        -3.858552 -2.722013  5.170996 -0.220898  0.159050
  3H   2s         0.014038  0.183896 -0.530046 -0.118221  0.124588
  3H   1pz        0.902767  1.042061 -1.397566  0.432126 -0.031873
  3H   1px       -0.381993 -0.211067  0.644169  0.340136  0.061837
  3H   1py       -0.496865 -0.124846  1.059859  0.066773  0.343741
  4H   1s        -2.869478  6.188794  0.092091  0.034347 -1.022068
  4H   2s         0.173507 -0.212472  0.004060  0.008179  0.268549
  4H   1pz       -0.576313  1.868675 -0.217571 -0.310086 -0.452766
  4H   1px       -0.308518  0.802099  0.014530  0.000390  0.352955
  4H   1py       -0.331761  1.064965  0.441253  0.560056 -0.263604
  5H   1s         0.095023  0.380364  0.038664  5.978792  6.352991
  5H   2s         0.234730  0.280683  0.671728  0.200266  0.390393
  5H   1pz       -0.039833  0.253326  0.019153 -0.085981  0.207346
  5H   1px       -0.045108  0.243467  0.365249 -0.416006 -0.726227
  5H   1py       -0.073580  0.150780 -0.081619  2.099159  1.891584
  6H   1s         0.083414  0.411603  0.047635 -6.014994  6.313651
  6H   2s         0.234383  0.305553 -0.655526 -0.199320  0.398935
  6H   1pz       -0.088957  0.266848  0.089372 -1.791118  1.733364
  6H   1px       -0.042680  0.253666 -0.365016  0.420158 -0.716746
  6H   1py        0.000760  0.140137 -0.064939  1.118227 -0.746729
--------------
SCF ITERATIONS
--------------
               ***  Starting incremental Fock matrix formation  ***

  HOMO=   8 E=  6.817 eV LUMO= 10.553 eV gap=   3.736 eV

                         ----------------------------
                         !        ITERATION     0   !
                         ----------------------------
   Total Energy        :     -90.307479583083 Eh
   Energy Change       :     -90.307479583083 Eh
   MAX-DP              :       0.575476104488
   RMS-DP              :       0.030481197549
   Actual Damping      :       0.7000
   Actual Level Shift  :       0.2500 Eh
   Int. Num. El.       :    17.99538387 (UP=    8.99769193 DN=    8.99769193)
   Exchange            :   -13.33834832
   Correlation         :    -0.79226946


  HOMO=   8 E=  0.894 eV LUMO=  9.654 eV gap=   8.761 eV

                         ----------------------------
                         !        ITERATION     1   !
                         ----------------------------
   Total Energy        :     -90.749285532483 Eh
   Energy Change       :      -0.441805949400 Eh
   MAX-DP              :       0.347512806199
   RMS-DP              :       0.020465357672
   Actual Damping      :       0.7000
   Actual Level Shift  :       0.2500 Eh
   Int. Num. El.       :    17.99663248 (UP=    8.99831624 DN=    8.99831624)
   Exchange            :   -12.82905701
   Correlation         :    -0.77761145

                               ***Turning on DIIS***

  HOMO=   8 E= -2.051 eV LUMO=  8.992 eV gap=  11.043 eV

                         ----------------------------
                         !        ITERATION     2   !
                         ----------------------------
   Total Energy        :     -90.933704108148 Eh
   Energy Change       :      -0.184418575665 Eh
   MAX-DP              :       0.174561077684
   RMS-DP              :       0.009892966951
   Actual Damping      :       0.7000
   Actual Level Shift  :       0.2500 Eh
   Int. Num. El.       :    17.99707570 (UP=    8.99853785 DN=    8.99853785)
   Exchange            :   -12.54340301
   Correlation         :    -0.76780580
   DIIS-Error          :       0.105940785654


  HOMO=   8 E= -3.875 eV LUMO=  8.684 eV gap=  12.558 eV

                         ----------------------------
                         !        ITERATION     3   !
                         ----------------------------
   Total Energy        :     -91.044799376985 Eh
   Energy Change       :      -0.111095268837 Eh
   MAX-DP              :       0.294411546955
   RMS-DP              :       0.015994215580
   Actual Damping      :       0.0000
   Actual Level Shift  :       0.2500 Eh
   Int. Num. El.       :    17.99708231 (UP=    8.99854115 DN=    8.99854115)
   Exchange            :   -12.43931713
   Correlation         :    -0.76399901
   DIIS-Error          :       0.048739837751
   DIIS coefficients:
     -0.52362   1.52362


  HOMO=   8 E= -3.589 eV LUMO=  8.821 eV gap=  12.410 eV

                         ----------------------------
                         !        ITERATION     4   !
                         ----------------------------
   Total Energy        :     -91.306619594155 Eh
   Energy Change       :      -0.261820217170 Eh
   MAX-DP              :       0.132556577288
   RMS-DP              :       0.005452149165
   Actual Damping      :       0.0000
   Actual Level Shift  :       0.2500 Eh
   Int. Num. El.       :    17.99682964 (UP=    8.99841482 DN=    8.99841482)
   Exchange            :   -12.39584004
   Correlation         :    -0.76221574
   DIIS-Error          :       0.013244678466
   DIIS coefficients:
      0.04628   0.05936   0.89436


  HOMO=   8 E= -3.393 eV LUMO=  8.900 eV gap=  12.293 eV

                         ----------------------------
                         !        ITERATION     5   !
                         ----------------------------
   Total Energy        :     -91.307618233606 Eh
   Energy Change       :      -0.000998639451 Eh
   MAX-DP              :       0.060645387573
   RMS-DP              :       0.002841867332
   Actual Damping      :       0.0000
   Actual Level Shift  :       0.2500 Eh
   Int. Num. El.       :    17.99690150 (UP=    8.99845075 DN=    8.99845075)
   Exchange            :   -12.42250758
   Correlation         :    -0.76326410
   DIIS-Error          :       0.003584909202
   DIIS coefficients:
     -0.02885   0.00408  -0.00770   1.03246

                      *** Initiating the SOSCF procedure ***
                           *** Shutting down DIIS ***
                      *** Re-Reading the Fockian *** 
                      *** Removing any level shift *** 

  HOMO=   8 E= -3.345 eV LUMO=  2.112 eV gap=   5.457 eV

                         ----------------------------
                         !        ITERATION     6   !
                         ----------------------------
   Total Energy        :     -91.307747156192 Eh
   Energy Change       :      -0.000128922586 Eh
   MAX-DP              :       0.032473026600
   RMS-DP              :       0.001711355556
   Orbital gradient    :       0.002032778426
   Orbital Rotation    :       0.002032778426
   Actual Damping      :       0.0000
   Int. Num. El.       :    17.99697058 (UP=    8.99848529 DN=    8.99848529)
   Exchange            :   -12.42189471
   Correlation         :    -0.76328759

               *** Restarting incremental Fock matrix formation ***

  HOMO=   8 E= -3.345 eV LUMO=  2.112 eV gap=   5.457 eV

                         ----------------------------
                         !        ITERATION     7   !
                         ----------------------------
   Total Energy        :     -91.307786947039 Eh
   Energy Change       :      -0.000039790847 Eh
   MAX-DP              :       0.040966655005
   RMS-DP              :       0.002285707385
   Orbital gradient    :       0.001264423411
   Orbital Rotation    :       0.006304624920
   Actual Damping      :       0.0000
   Int. Num. El.       :    17.99701275 (UP=    8.99850637 DN=    8.99850637)
   Exchange            :   -12.42139511
   Correlation         :    -0.76329732


  HOMO=   8 E= -3.345 eV LUMO=  2.112 eV gap=   5.457 eV

                         ----------------------------
                         !        ITERATION     8   !
                         ----------------------------
   Total Energy        :     -91.307807563352 Eh
   Energy Change       :      -0.000020616313 Eh
   MAX-DP              :       0.013879595267
   RMS-DP              :       0.000776606708
   Orbital gradient    :       0.000321856881
   Orbital Rotation    :       0.001737376945
   Actual Damping      :       0.0000
   Int. Num. El.       :    17.99704844 (UP=    8.99852422 DN=    8.99852422)
   Exchange            :   -12.42314641
   Correlation         :    -0.76338459


  HOMO=   8 E= -3.345 eV LUMO=  2.112 eV gap=   5.457 eV

                         ----------------------------
                         !        ITERATION     9   !
                         ----------------------------
   Total Energy        :     -91.307808502625 Eh
   Energy Change       :      -0.000000939273 Eh
   MAX-DP              :       0.002965981795
   RMS-DP              :       0.000167185957
   Orbital gradient    :       0.000266419194
   Orbital Rotation    :       0.000292469669
   Actual Damping      :       0.0000
   Int. Num. El.       :    17.99705979 (UP=    8.99852989 DN=    8.99852989)
   Exchange            :   -12.42192527
   Correlation         :    -0.76334739


  HOMO=   8 E= -3.345 eV LUMO=  2.112 eV gap=   5.457 eV

                         ----------------------------
                         !        ITERATION    10   !
                         ----------------------------
   Total Energy        :     -91.307809194713 Eh
   Energy Change       :      -0.000000692088 Eh
   MAX-DP              :       0.000495483558
   RMS-DP              :       0.000027398961
   Orbital gradient    :       0.000028426863
   Orbital Rotation    :       0.000053265905
   Actual Damping      :       0.0000
   Int. Num. El.       :    17.99705525 (UP=    8.99852762 DN=    8.99852762)
   Exchange            :   -12.42260968
   Correlation         :    -0.76337009


  HOMO=   8 E= -3.345 eV LUMO=  2.112 eV gap=   5.457 eV

                         ----------------------------
                         !        ITERATION    11   !
                         ----------------------------
   Total Energy        :     -91.307809202123 Eh
   Energy Change       :      -0.000000007410 Eh
   MAX-DP              :       0.000138104051
   RMS-DP              :       0.000007539195
   Orbital gradient    :       0.000014791658
   Orbital Rotation    :       0.000016335919
   Actual Damping      :       0.0000
   Int. Num. El.       :    17.99705492 (UP=    8.99852746 DN=    8.99852746)
   Exchange            :   -12.42255740
   Correlation         :    -0.76336790

                 **** Energy Check signals convergence ****
              ***Rediagonalizing the Fockian in SOSCF/NRSCF***

               *****************************************************
               *                     SUCCESS                       *
               *           SCF CONVERGED AFTER  12 CYCLES          *
               *****************************************************

Setting up the final grid:

General Integration Accuracy     IntAcc      ...  4.670
Radial Grid Type                 RadialGrid  ... Gauss-Chebyshev
Angular Grid (max. acc.)         AngularGrid ... Lebedev-302
Angular grid pruning method      GridPruning ... 3 (G Style)
Weight generation scheme         WeightScheme... Becke
Basis function cutoff            BFCut       ...    1.0000e-11
Integration weight cutoff        WCut        ...    1.0000e-14
Grids for H and He will be reduced by one unit

# of grid points (after initial pruning)     ...  29394 (   0.0 sec)
# of grid points (after weights+screening)   ...  27411 (   0.0 sec)
nearest neighbour list constructed           ...    0.0 sec
Grid point re-assignment to atoms done       ...    0.0 sec
Grid point division into batches done        ...    0.1 sec
Reduced shell lists constructed in    0.1 sec

Total number of grid points                  ...    27411
Total number of batches                      ...      433
Average number of points per batch           ...       63
Average number of grid points per atom       ...     3916
Average number of shells per batch           ...    24.66 (91.32%)
Average number of basis functions per batch  ...    48.10 (90.76%)
Average number of large shells per batch     ...    23.97 (97.20%)
Average number of large basis fcns per batch ...    47.00 (97.71%)
Maximum spatial batch extension              ...  11.16, 11.49, 13.71 au
Average spatial batch extension              ...   0.11,  0.11,  0.12 au

Final grid set up in    0.4 sec
Final integration                            ... done (   0.5 sec)
Change in XC energy                          ...    -0.001580459
Integrated number of electrons               ...    18.000009343
Previous integrated no of electrons          ...    17.997055001

----------------
TOTAL SCF ENERGY
----------------

Total Energy       :          -91.30938966 Eh           -2484.65481 eV

Components:
Nuclear Repulsion  :           79.16145944 Eh            2154.09282 eV
Electronic Energy  :         -170.47084910 Eh           -4638.74763 eV
One Electron Energy:         -273.22988061 Eh           -7434.96304 eV
Two Electron Energy:          102.75903151 Eh            2796.21540 eV

Virial components:
Potential Energy   :         -199.40675444 Eh           -5426.13365 eV
Kinetic Energy     :          108.09736478 Eh            2941.47884 eV
Virial Ratio       :            1.84469580


DFT components:
N(Alpha)           :        9.000004671341 electrons
N(Beta)            :        9.000004671341 electrons
N(Total)           :       18.000009342682 electrons
E(X)               :      -12.423863829680 Eh       
E(C)               :       -0.763652341209 Eh       
E(XC)              :      -13.187516170889 Eh       
DFET-embed. en.    :        0.000000000000 Eh       

---------------
SCF CONVERGENCE
---------------

  Last Energy change         ...   -1.9157e-09  Tolerance :   1.0000e-08
  Last MAX-Density change    ...    2.0920e-05  Tolerance :   1.0000e-07
  Last RMS-Density change    ...    1.0789e-06  Tolerance :   5.0000e-09
  Last Orbital Gradient      ...    1.5789e-06  Tolerance :   1.0000e-05
  Last Orbital Rotation      ...    2.0024e-06  Tolerance :   1.0000e-05

             **** THE GBW FILE WAS UPDATED (tddft.gbw) ****
             **** DENSITY FILE WAS UPDATED (tddft.scfp) ****
             **** ENERGY FILE WAS UPDATED (tddft.en.tmp) ****
             **** THE GBW FILE WAS UPDATED (tddft.gbw) ****
             **** DENSITY FILE WAS UPDATED (tddft.scfp) ****
----------------
ORBITAL ENERGIES
----------------

  NO   OCC          E(Eh)            E(eV) 
   0   2.0000     -14.260855      -388.0576 
   1   2.0000     -10.188511      -277.2435 
   2   2.0000      -1.234030       -33.5797 
   3   2.0000      -0.895613       -24.3709 
   4   2.0000      -0.842761       -22.9327 
   5   2.0000      -0.701923       -19.1003 
   6   2.0000      -0.581632       -15.8270 
   7   2.0000      -0.321900        -8.7593 
   8   2.0000      -0.122319        -3.3285 
   9   0.0000       0.077862         2.1187 
  10   0.0000       0.129053         3.5117 
  11   0.0000       0.143402         3.9022 
  12   0.0000       0.170591         4.6420 
  13   0.0000       0.245749         6.6872 
  14   0.0000       0.297166         8.0863 
  15   0.0000       0.469437        12.7740 
  16   0.0000       0.472723        12.8634 
  17   0.0000       0.647757        17.6264 
  18   0.0000       0.701344        19.0845 
  19   0.0000       0.753929        20.5155 
  20   0.0000       0.784121        21.3370 
  21   0.0000       0.981313        26.7029 
  22   0.0000       1.057902        28.7870 
  23   0.0000       1.096997        29.8508 
  24   0.0000       1.131881        30.8000 
  25   0.0000       1.269401        34.5421 
  26   0.0000       1.405195        38.2373 
  27   0.0000       1.532742        41.7080 
  28   0.0000       1.533544        41.7299 
  29   0.0000       2.011070        54.7240 
  30   0.0000       2.062181        56.1148 
  31   0.0000       2.111104        57.4461 
  32   0.0000       2.176447        59.2241 
  33   0.0000       2.212610        60.2082 
  34   0.0000       2.395459        65.1838 
  35   0.0000       2.399895        65.3045 
  36   0.0000       2.538145        69.0664 
  37   0.0000       2.624080        71.4049 
  38   0.0000       2.763536        75.1996 
  39   0.0000       2.851643        77.5971 
  40   0.0000       3.011601        81.9498 
  41   0.0000       3.037373        82.6511 
  42   0.0000       3.351154        91.1895 
  43   0.0000       3.410163        92.7953 
  44   0.0000       3.688268       100.3629 
  45   0.0000       3.815592       103.8275 
  46   0.0000       3.983670       108.4012 
  47   0.0000       4.363567       118.7387 
  48   0.0000       5.392062       146.7255 
  49   0.0000       5.890319       160.2837 
  50   0.0000       6.001360       163.3053 
  51   0.0000       6.295248       171.3024 
  52   0.0000       6.411027       174.4529 
------------------
MOLECULAR ORBITALS
------------------
                      0         1         2         3         4         5   
                 -14.26086 -10.18851  -1.23403  -0.89561  -0.84276  -0.70192
                   2.00000   2.00000   2.00000   2.00000   2.00000   2.00000
                  --------  --------  --------  --------  --------  --------
  0N   1s        -0.984695 -0.015422 -0.293975  0.000069  0.046731  0.133935
  0N   2s         0.026700 -0.013278 -0.090636  0.001564 -0.169456 -0.126103
  0N   3s        -0.052971  0.002485  0.245231 -0.000080 -0.466945 -0.109477
  0N   1pz        0.003274 -0.000168 -0.118276  0.251171  0.267168 -0.181168
  0N   1px        0.007139 -0.013527 -0.136009  0.000890 -0.305965  0.052619
  0N   1py        0.001897 -0.000092 -0.068807 -0.433238  0.153962 -0.105769
  0N   2pz        0.001778 -0.002166 -0.085676  0.032047  0.013519  0.084621
  0N   2px        0.004067  0.001554  0.030006  0.000025  0.092715  0.049335
  0N   2py        0.001041 -0.001256 -0.049705 -0.054707  0.008080  0.048309
  0N   1dz2      -0.001134  0.003707 -0.005062  0.040902  0.026456 -0.012350
  0N   1dxz       0.000746 -0.001221 -0.024757  0.018038  0.011899  0.005799
  0N   1dyz       0.001120 -0.000354 -0.008619 -0.027057  0.016479 -0.007976
  0N   1dx2y2     0.003242 -0.006836 -0.001066  0.023607 -0.026877  0.012006
  0N   1dxy       0.000422 -0.000715 -0.014340 -0.030985  0.006628  0.003079
  1C   1s         0.003668 -0.979279  0.242940 -0.000671  0.240968  0.115470
  1C   2s        -0.017827  0.060644 -0.047436 -0.000960  0.316212  0.303623
  1C   3s         0.050209  0.032201  0.018912 -0.000087  0.522265  0.303204
  1C   1pz        0.000594 -0.000307  0.034727 -0.198882 -0.248492  0.331175
  1C   1px        0.002673 -0.012950 -0.270780 -0.000795  0.066509  0.417468
  1C   1py        0.000338 -0.000206  0.020774  0.343898 -0.143531  0.192434
  1C   2pz        0.000634  0.000932  0.037824 -0.016856  0.021509 -0.039895
  1C   2px        0.007246 -0.003454 -0.030290 -0.000663  0.031288  0.060775
  1C   2py        0.000355  0.000541  0.023097  0.028896  0.011607 -0.022073
  1C   1dz2      -0.003302  0.002222  0.021537 -0.007956 -0.015486 -0.021661
  1C   1dxz       0.005048 -0.000366 -0.038800  0.017924  0.025312  0.015537
  1C   1dyz      -0.000929  0.000791  0.010991  0.005237 -0.003001 -0.006456
  1C   1dx2y2     0.004626 -0.002943 -0.024524 -0.004513  0.023414  0.030952
  1C   1dxy       0.002921 -0.000196 -0.022439 -0.031581  0.014651  0.008060
  2H   1s         0.007757 -0.034541 -0.184969  0.124590 -0.355300 -0.161345
  2H   2s        -0.009613 -0.007640 -0.019012  0.016647 -0.172322 -0.021474
  2H   1pz        0.001087  0.000088 -0.012745  0.013865  0.026189 -0.015188
  2H   1px       -0.001452 -0.004209  0.006550  0.029065 -0.017190 -0.024216
  2H   1py       -0.000681  0.011298  0.026487 -0.023791  0.041083  0.006450
  3H   1s         0.007742 -0.034545 -0.184669 -0.123307 -0.354737 -0.162144
  3H   2s        -0.009649 -0.007626 -0.016612 -0.016477 -0.173863 -0.019935
  3H   1pz       -0.000039  0.009817  0.016616  0.013605  0.048445 -0.002230
  3H   1px       -0.001447 -0.004202  0.006490 -0.028729 -0.017401 -0.025092
  3H   1py        0.001282 -0.005598 -0.024612 -0.023970  0.002075 -0.016582
  4H   1s         0.003894 -0.036056 -0.169255  0.001554 -0.195229 -0.503268
  4H   2s        -0.008839 -0.006502  0.010472 -0.000845 -0.039433 -0.219006
  4H   1pz       -0.001593 -0.009318 -0.006462  0.015644 -0.013267 -0.066001
  4H   1px        0.002290 -0.006185 -0.026229  0.000218  0.013207 -0.043550
  4H   1py       -0.000910 -0.005350 -0.003905 -0.027137 -0.007460 -0.038456
  5H   1s         0.011343 -0.002491 -0.377022 -0.250877  0.265449  0.150937
  5H   2s         0.005079 -0.001914 -0.062721 -0.129707  0.064039 -0.009681
  5H   1pz        0.001908  0.000496 -0.006711 -0.002801  0.009469 -0.001064
  5H   1px       -0.004026 -0.000410  0.019385 -0.003874  0.001900  0.008355
  5H   1py        0.006424  0.001124 -0.058617 -0.030536  0.029735  0.035595
  6H   1s         0.011333 -0.002469 -0.376853  0.250042  0.266660  0.152245
  6H   2s         0.005059 -0.001921 -0.063107  0.130315  0.064242 -0.007648
  6H   1pz        0.006527  0.001221 -0.054288  0.027498  0.030730  0.030509
  6H   1px       -0.004011 -0.000414  0.019367  0.004019  0.001999  0.008099
  6H   1py       -0.001512 -0.000141  0.022922 -0.012706 -0.006423 -0.018728
                      6         7         8         9        10        11   
                  -0.58163  -0.32190  -0.12232   0.07786   0.12905   0.14340
                   2.00000   2.00000   2.00000   0.00000   0.00000   0.00000
                  --------  --------  --------  --------  --------  --------
  0N   1s        -0.002149 -0.000154 -0.045508 -0.057975 -0.000068  0.048880
  0N   2s        -0.086267  0.000559 -0.190742 -0.165822 -0.009318 -0.229204
  0N   3s         0.256024  0.001291 -0.060061  0.748448  0.065340  2.018023
  0N   1pz        0.053035  0.196055  0.459363  0.026186 -0.077377  0.024986
  0N   1px        0.588611 -0.001438  0.109789  0.099134 -0.000386 -0.087526
  0N   1py        0.029419 -0.338348  0.267312  0.013050  0.133528  0.008419
  0N   2pz       -0.033767 -0.058726 -0.469463 -0.017384  0.211635  0.094872
  0N   2px       -0.228805 -0.000545 -0.142959 -0.736264 -0.010726  0.148954
  0N   2py       -0.019007  0.101701 -0.272653  0.010099 -0.342720  0.064258
  0N   1dz2      -0.016248  0.023104  0.016627 -0.004965 -0.017544  0.005401
  0N   1dxz       0.050245  0.005223  0.013425  0.018712 -0.018499  0.003075
  0N   1dyz       0.000196 -0.015294  0.021476 -0.003402  0.011690  0.001451
  0N   1dx2y2     0.028672  0.013341 -0.003942  0.005623 -0.010181 -0.006077
  0N   1dxy       0.028912 -0.009180  0.007847  0.010254  0.032947  0.000346
  1C   1s        -0.073491  0.000224 -0.020523  0.069226  0.002175  0.054743
  1C   2s         0.049367 -0.000699 -0.077838  0.132463  0.008393  0.276414
[...]
The origin for moment calculation is the CENTER OF MASS  = ( 0.182994,  0.053737  0.092291)

-------------
DIPOLE MOMENT
-------------
                                X             Y             Z
Electronic contribution:      0.66344      -0.02421      -0.04830
Nuclear contribution   :     -0.62718      -0.20155      -0.34613
                        -----------------------------------------
Total Dipole Moment    :      0.03626      -0.22576      -0.39443
                        -----------------------------------------
Magnitude (a.u.)       :      0.45591
Magnitude (Debye)      :      1.15884



--------------------
Rotational spectrum 
--------------------
 
Rotational constants in cm-1:    12.215976     2.714031     2.609772 
Rotational constants in MHz : 366225.759028 81364.612763 78239.004767 

 Dipole components along the rotational axes: 
x,y,z [a.u.] :     0.050891    -0.003449    -0.453053 
x,y,z [Debye]:     0.129356    -0.008768    -1.151568 

 

                        *** CIS RELAXED DENSITY ***

------------------------------------------------------------------------------
                       ORCA ELECTRIC PROPERTIES CALCULATION
------------------------------------------------------------------------------

Dipole Moment Calculation                       ... on
Quadrupole Moment Calculation                   ... off
Polarizability Calculation                      ... off
GBWName                                         ... tddft.gbw
Electron density file                           ... tddft.cisp
The origin for moment calculation is the CENTER OF MASS  = ( 0.182994,  0.053737  0.092291)

-------------
DIPOLE MOMENT
-------------
                                X             Y             Z
Electronic contribution:      1.07641       0.24393       0.30442
Nuclear contribution   :     -0.62718      -0.20155      -0.34613
                        -----------------------------------------
Total Dipole Moment    :      0.44923       0.04237      -0.04171
                        -----------------------------------------
Magnitude (a.u.)       :      0.45315
Magnitude (Debye)      :      1.15182



--------------------
Rotational spectrum 
--------------------
 
Rotational constants in cm-1:    12.215976     2.714031     2.609772 
Rotational constants in MHz : 366225.759028 81364.612763 78239.004767 

 Dipole components along the rotational axes: 
x,y,z [a.u.] :     0.449489    -0.057508    -0.000229 
x,y,z [Debye]:     1.142509    -0.146173    -0.000582 

 

----------------------------------------------------------------------------
                           ORCA NUMERICAL FREQUENCIES
                              (16-process run)
----------------------------------------------------------------------------

Number of atoms                ... 7
Central differences            ... used
Number of displacements        ... 42
Numerical increment            ... 5.000e-03 bohr
IR-spectrum generation         ... on
Raman-spectrum generation      ... off
Surface Crossing Hessian       ... off

The output will be reduced. Please look at the following files:
SCF program output             ... >tddft.lastscf
Integral program output        ... >tddft.lastint
Gradient program output        ... >tddft.lastgrad
Dipole moment program output   ... >tddft.lastmom
AutoCI program output          ... >tddft.lastautoci


         <<< Energy and Gradient at the input geometry >>>

        <<< Energy and Gradient at displaced geometries >>>
             <<<Displacing   5/coordinate 1 (+)>>>
             <<<Displacing   3/coordinate 3 (+)>>>
             <<<Displacing   5/coordinate 3 (+)>>>
             <<<Displacing   4/coordinate 2 (+)>>>
             <<<Displacing   2/coordinate 1 (+)>>>
             <<<Displacing   3/coordinate 2 (+)>>>
             <<<Displacing   4/coordinate 3 (+)>>>
             <<<Displacing   1/coordinate 3 (+)>>>
             <<<Displacing   4/coordinate 1 (+)>>>
             <<<Displacing   2/coordinate 2 (+)>>>
             <<<Displacing   2/coordinate 3 (+)>>>
             <<<Displacing   5/coordinate 2 (+)>>>
             <<<Displacing   3/coordinate 1 (+)>>>
             <<<Displacing   6/coordinate 1 (+)>>>
             <<<Displacing   1/coordinate 2 (+)>>>
             <<<Displacing   1/coordinate 1 (+)>>>
             <<<Displacing   3/coordinate 2 (-)>>>
             <<<Displacing   1/coordinate 2 (-)>>>
             <<<Displacing   1/coordinate 1 (-)>>>
             <<<Displacing   5/coordinate 2 (-)>>>
             <<<Displacing   3/coordinate 3 (-)>>>
             <<<Displacing   2/coordinate 2 (-)>>>
             <<<Displacing   4/coordinate 2 (-)>>>
             <<<Displacing   6/coordinate 1 (-)>>>
             <<<Displacing   4/coordinate 1 (-)>>>
             <<<Displacing   2/coordinate 1 (-)>>>
             <<<Displacing   5/coordinate 1 (-)>>>
             <<<Displacing   1/coordinate 3 (-)>>>
             <<<Displacing   2/coordinate 3 (-)>>>
             <<<Displacing   4/coordinate 3 (-)>>>
             <<<Displacing   3/coordinate 1 (-)>>>
             <<<Displacing   5/coordinate 3 (-)>>>
             <<<Displacing   6/coordinate 2 (+)>>>
             <<<Displacing   6/coordinate 3 (+)>>>
             <<<Displacing   7/coordinate 1 (+)>>>
             <<<Displacing   7/coordinate 2 (+)>>>
             <<<Displacing   7/coordinate 3 (+)>>>
             <<<Displacing   6/coordinate 2 (-)>>>
             <<<Displacing   7/coordinate 1 (-)>>>
             <<<Displacing   6/coordinate 3 (-)>>>
             <<<Displacing   7/coordinate 2 (-)>>>
             <<<Displacing   7/coordinate 3 (-)>>>

-----------------------
VIBRATIONAL FREQUENCIES
-----------------------

Scaling factor for frequencies =  1.000000000 (already applied!)

   0:         0.00 cm**-1
   1:         0.00 cm**-1
   2:         0.00 cm**-1
   3:         0.00 cm**-1
   4:         0.00 cm**-1
   5:         0.00 cm**-1
   6:     -7712.62 cm**-1 ***imaginary mode***
   7:     -7451.85 cm**-1 ***imaginary mode***
   8:     -7145.48 cm**-1 ***imaginary mode***
   9:     -7120.49 cm**-1 ***imaginary mode***
  10:     -6295.48 cm**-1 ***imaginary mode***
  11:     -6178.52 cm**-1 ***imaginary mode***
  12:     -5931.49 cm**-1 ***imaginary mode***
  13:     -5301.30 cm**-1 ***imaginary mode***
  14:     -5111.53 cm**-1 ***imaginary mode***
  15:      6963.01 cm**-1
  16:     12511.09 cm**-1
  17:     13054.90 cm**-1
  18:     13170.52 cm**-1
  19:     15433.73 cm**-1
  20:     15856.07 cm**-1


------------
NORMAL MODES
------------

These modes are the cartesian displacements weighted by the diagonal matrix
M(i,i)=1/sqrt(m[i]) where m[i] is the mass of the displaced atom
Thus, these vectors are normalized but *not* orthogonal

                  0          1          2          3          4          5    
      0       0.000000   0.000000   0.000000   0.000000   0.000000   0.000000
      1       0.000000   0.000000   0.000000   0.000000   0.000000   0.000000
      2       0.000000   0.000000   0.000000   0.000000   0.000000   0.000000
      3       0.000000   0.000000   0.000000   0.000000   0.000000   0.000000
      4       0.000000   0.000000   0.000000   0.000000   0.000000   0.000000
      5       0.000000   0.000000   0.000000   0.000000   0.000000   0.000000
      6       0.000000   0.000000   0.000000   0.000000   0.000000   0.000000
      7       0.000000   0.000000   0.000000   0.000000   0.000000   0.000000
      8       0.000000   0.000000   0.000000   0.000000   0.000000   0.000000
      9       0.000000   0.000000   0.000000   0.000000   0.000000   0.000000
     10       0.000000   0.000000   0.000000   0.000000   0.000000   0.000000
     11       0.000000   0.000000   0.000000   0.000000   0.000000   0.000000
     12       0.000000   0.000000   0.000000   0.000000   0.000000   0.000000
     13       0.000000   0.000000   0.000000   0.000000   0.000000   0.000000
     14       0.000000   0.000000   0.000000   0.000000   0.000000   0.000000
     15       0.000000   0.000000   0.000000   0.000000   0.000000   0.000000
     16       0.000000   0.000000   0.000000   0.000000   0.000000   0.000000
     17       0.000000   0.000000   0.000000   0.000000   0.000000   0.000000
     18       0.000000   0.000000   0.000000   0.000000   0.000000   0.000000
     19       0.000000   0.000000   0.000000   0.000000   0.000000   0.000000
     20       0.000000   0.000000   0.000000   0.000000   0.000000   0.000000
                  6          7          8          9         10         11    
      0       0.049416   0.006374   0.017285  -0.060186   0.000098  -0.005617
      1       0.052599   0.037709   0.046400   0.029358   0.038965  -0.019354
      2       0.095173  -0.011348  -0.038066   0.011177  -0.022796  -0.037162
      3       0.010507   0.000360   0.007629  -0.024776  -0.001068  -0.007164
      4      -0.010008  -0.019950   0.004859  -0.001069  -0.121087   0.071346
      5      -0.020111   0.006460  -0.000657  -0.000802   0.066244   0.131986
      6      -0.061825   0.031076  -0.195884   0.029104   0.083218  -0.149152
      7      -0.036260  -0.004350  -0.086136   0.015787  -0.062085   0.011727
      8      -0.068049   0.296564   0.152456   0.111319  -0.397818  -0.629076
      9      -0.047938  -0.036192   0.146595   0.132458  -0.063816  -0.162974
     10       0.004879  -0.240659  -0.198173  -0.034785   0.338314  -0.542870
     11      -0.034190  -0.141438  -0.042581   0.053183   0.275524  -0.301706
     12       0.058276   0.008536   0.000344  -0.006813   0.005747   0.359603
     13      -0.058397   0.379244  -0.140647  -0.026619   0.617067   0.003447
     14      -0.013979  -0.225735   0.084004   0.012425  -0.361761  -0.046103
     15      -0.403719   0.061404  -0.719915   0.311128  -0.213865   0.059464
     16      -0.129879   0.045289  -0.252608   0.167628  -0.049769   0.007052
     17      -0.619188   0.509157   0.218455  -0.350005  -0.072019  -0.049415
     18      -0.356669  -0.157679   0.437768   0.665677   0.200083   0.056470
     19      -0.391998  -0.465809  -0.025102  -0.517222   0.057854  -0.060562
     20      -0.347465  -0.357833   0.124451   0.027317   0.083493  -0.030011
                 12         13         14         15         16         17    
      0       0.015506   0.001651   0.000017  -0.425047   0.011302   0.001469
      1       0.000025   0.024746  -0.050456  -0.001178   0.000371  -0.001190
      2      -0.000852   0.035544   0.031680  -0.002155   0.000867  -0.001944
      3       0.092703  -0.005018  -0.001239   0.467567  -0.069275   0.001596
      4      -0.000836  -0.022513   0.060072  -0.000819  -0.005216  -0.043411
      5       0.002170  -0.029512  -0.036300  -0.002079  -0.008900  -0.078348
      6      -0.498126   0.396095  -0.608638   0.303494   0.182972  -0.176038
      7      -0.230622   0.142524  -0.181605  -0.142592  -0.486201   0.435580
      8      -0.040329  -0.344917  -0.139192  -0.012480  -0.003981  -0.002580
      9      -0.490028   0.324490   0.658447   0.303222   0.183687  -0.183595
     10       0.087624  -0.369346  -0.020377   0.056913   0.242094  -0.230571
     11      -0.209221  -0.073945   0.221108  -0.131237  -0.423084   0.392923
     12      -0.532039  -0.618276  -0.029415   0.357793   0.280406   0.319110
     13       0.164659   0.124152   0.216745   0.092514   0.304981   0.325950
     14       0.248041   0.227729  -0.111076   0.157400   0.530460   0.567360
     15       0.100360  -0.037784   0.107303  -0.312484   0.010309   0.000195
     16       0.037891   0.009515  -0.006401   0.086265  -0.014532   0.000438
     17      -0.027547   0.029092   0.027577  -0.020973   0.002523   0.001684
     18       0.099749  -0.027673  -0.113168  -0.317010   0.011021   0.000894
     19      -0.049932   0.017550  -0.023027  -0.066972   0.010658   0.002416
     20       0.015042   0.019783  -0.006103   0.062007  -0.011915   0.001191
                  18         19         20    
      0      -0.000061   0.041629   0.000393
      1      -0.001566  -0.022565  -0.068673
      2       0.000907  -0.040576   0.039405
      3       0.000180  -0.006751   0.000167
      4      -0.078940  -0.000412  -0.000707
      5       0.043881  -0.000637   0.000520
      6      -0.266077   0.003197   0.000770
      7       0.660027  -0.007396  -0.003561
      8       0.017653   0.001378  -0.000113
      9       0.259928   0.003632  -0.000876
     10       0.309031   0.004995  -0.002424
     11      -0.567100  -0.006588   0.002763
     12       0.004705   0.005169  -0.000608
     13      -0.009150   0.002975   0.002089
     14       0.016069   0.004753  -0.001985
     15      -0.004549  -0.252387  -0.267985
     16      -0.000479   0.650669   0.660382
     17      -0.003435  -0.004012   0.014393
     18       0.004697  -0.257643   0.261254
     19       0.002953  -0.332764   0.306213
     20       0.001334   0.575901  -0.568812


-----------
IR SPECTRUM  
-----------

 Mode    freq (cm**-1)   T**2         TX         TY         TZ
-------------------------------------------------------------------
  15:      6963.01   78.420133  (  7.269582   2.579228   4.349815)
  16:     12511.09  574.571528  (-21.883119  -4.732564  -8.561746)
  17:     13054.90  219.313533  ( -1.778993  -7.344437 -12.736089)
  18:     13170.52    0.317419  (  0.000122   0.490656  -0.276902)
  19:     15433.73    1.781533  (  1.295340  -0.176011  -0.269533)
  20:     15856.07   40.776430  ( -0.123185   5.573664  -3.113764)

The first frequency considered to be a vibration is 15
The total number of vibrations considered is 6


--------------------------
THERMOCHEMISTRY AT 298.15K
--------------------------

Temperature         ... 298.15 K
Pressure            ... 1.00 atm
Total Mass          ... 31.06 AMU

Throughout the following assumptions are being made:
  (1) The electronic state is orbitally nondegenerate
  (2) There are no thermally accessible electronically excited states
  (3) Hindered rotations indicated by low frequency modes are not
      treated as such but are treated as vibrations and this may
      cause some error
  (4) All equations used are the standard statistical mechanics
      equations for an ideal gas
  (5) All vibrations are strictly harmonic

freq.    6963.01  E(vib)   ...       0.00 
freq.   12511.09  E(vib)   ...       0.00 
freq.   13054.90  E(vib)   ...       0.00 
freq.   13170.52  E(vib)   ...       0.00 
freq.   15433.73  E(vib)   ...       0.00 
freq.   15856.07  E(vib)   ...       0.00 

------------
INNER ENERGY
------------

The inner energy is: U= E(el) + E(ZPE) + E(vib) + E(rot) + E(trans)
    E(el)   - is the total energy from the electronic structure calculation
              = E(kin-el) + E(nuc-el) + E(el-el) + E(nuc-nuc)
    E(ZPE)  - the the zero temperature vibrational energy from the frequency calculation
    E(vib)  - the the finite temperature correction to E(ZPE) due to population
              of excited vibrational states
    E(rot)  - is the rotational thermal energy
    E(trans)- is the translational thermal energy

Summary of contributions to the inner energy U:
Electronic energy                ...    -91.15368048 Eh
Zero point energy                ...      0.17539456 Eh     110.06 kcal/mol
Thermal vibrational correction   ...      0.00000000 Eh       0.00 kcal/mol
Thermal rotational correction    ...      0.00141627 Eh       0.89 kcal/mol
Thermal translational correction ...      0.00141627 Eh       0.89 kcal/mol
-----------------------------------------------------------------------
Total thermal energy                    -90.97545338 Eh


Summary of corrections to the electronic energy:
(perhaps to be used in another calculation)
Total thermal correction                  0.00283254 Eh       1.78 kcal/mol
Non-thermal (ZPE) correction              0.17539456 Eh     110.06 kcal/mol
-----------------------------------------------------------------------
Total correction                          0.17822710 Eh     111.84 kcal/mol


--------
ENTHALPY
--------

The enthalpy is H = U + kB*T
                kB is Boltzmann's constant
Total free energy                 ...    -90.97545338 Eh 
Thermal Enthalpy correction       ...      0.00094421 Eh       0.59 kcal/mol
-----------------------------------------------------------------------
Total Enthalpy                    ...    -90.97450918 Eh


Note: Only C1 symmetry has been detected, increase convergence thresholds 
      if your molecule has a higher symmetry. Symmetry factor of 1.0 is   
      used for the rotational entropy correction. 
 

Note: Rotational entropy computed according to Herzberg 
Infrared and Raman Spectra, Chapter V,1, Van Nostrand Reinhold, 1945 
Point Group:  C1, Symmetry Number:   1  
Rotational constants in cm-1:    12.215976     2.714031     2.609772 

Vibrational entropy computed according to the QRRHO of S. Grimme
Chem.Eur.J. 2012 18 9955


-------
ENTROPY
-------

The entropy contributions are T*S = T*(S(el)+S(vib)+S(rot)+S(trans))
     S(el)   - electronic entropy
     S(vib)  - vibrational entropy
     S(rot)  - rotational entropy
     S(trans)- translational entropy
The entropies will be listed as mutliplied by the temperature to get
units of energy

Electronic entropy                ...      0.00000000 Eh      0.00 kcal/mol
Vibrational entropy               ...     -0.00000000 Eh     -0.00 kcal/mol
Rotational entropy                ...      0.00740508 Eh      4.65 kcal/mol
Translational entropy             ...      0.01721518 Eh     10.80 kcal/mol
-----------------------------------------------------------------------
Final entropy term                ...      0.02462025 Eh     15.45 kcal/mol

In case the symmetry of your molecule has not been determined correctly
or in case you have a reason to use a different symmetry number we print 
out the resulting rotational entropy values for sn=1,12 :
 --------------------------------------------------------
|  sn= 1 | S(rot)=       0.00740508 Eh      4.65 kcal/mol|
|  sn= 2 | S(rot)=       0.00675062 Eh      4.24 kcal/mol|
|  sn= 3 | S(rot)=       0.00636779 Eh      4.00 kcal/mol|
|  sn= 4 | S(rot)=       0.00609616 Eh      3.83 kcal/mol|
|  sn= 5 | S(rot)=       0.00588548 Eh      3.69 kcal/mol|
|  sn= 6 | S(rot)=       0.00571333 Eh      3.59 kcal/mol|
|  sn= 7 | S(rot)=       0.00556779 Eh      3.49 kcal/mol|
|  sn= 8 | S(rot)=       0.00544171 Eh      3.41 kcal/mol|
|  sn= 9 | S(rot)=       0.00533050 Eh      3.34 kcal/mol|
|  sn=10 | S(rot)=       0.00523102 Eh      3.28 kcal/mol|
|  sn=11 | S(rot)=       0.00514103 Eh      3.23 kcal/mol|
|  sn=12 | S(rot)=       0.00505888 Eh      3.17 kcal/mol|
 --------------------------------------------------------


-------------------
GIBBS FREE ENERGY
-------------------

The Gibbs free energy is G = H - T*S

Total enthalpy                    ...    -90.97450918 Eh 
Total entropy correction          ...     -0.02462025 Eh    -15.45 kcal/mol
-----------------------------------------------------------------------
Final Gibbs free energy         ...    -90.99912943 Eh

For completeness - the Gibbs free energy minus the electronic energy
G-E(el)                           ...      0.15455105 Eh     96.98 kcal/mol


Total Time for Numerical Frequencies  :      2030.051 sec
Time for Reference State(s)           :       136.205 sec
Time for Displacements                :      1891.683 sec

Timings for individual modules:

Sum of individual times         ...      293.694 sec (=   4.895 min)
GTO integral calculation        ...        4.000 sec (=   0.067 min)   1.4 %
SCF iterations                  ...       27.655 sec (=   0.461 min)   9.4 %
CIS module                      ...      194.973 sec (=   3.250 min)  66.4 %
SCF Gradient evaluation         ...       64.392 sec (=   1.073 min)  21.9 %
Orbital/Density plot generation ...        2.674 sec (=   0.045 min)   0.9 %
                             ****ORCA TERMINATED NORMALLY****
TOTAL RUN TIME: 0 days 0 hours 36 minutes 43 seconds 330 msec
