
                                 *****************
                                 * O   R   C   A *
                                 *****************

           --- An Ab Initio, DFT and Semiempirical electronic structure package ---

                  #######################################################
                  #                        -***-                        #
                  #          Department of theory and spectroscopy      #
                  #               Directorship: Frank Neese             #
                  #        Max Planck Institute fuer Kohlenforschung    #
                  #                Kaiser Wilhelm Platz 1               #
                  #                 D-45470 Muelheim/Ruhr               #
                  #                      Germany                        #
                  #                                                     #
                  #                  All rights reserved                #
                  #                        -***-                        #
                  #######################################################


                         Program Version 4.2.1 -  RELEASE  -


 With contributions from (in alphabetic order):
   Daniel Aravena         : Magnetic Suceptibility
   Michael Atanasov       : Ab Initio Ligand Field Theory (pilot matlab implementation)
   Alexander A. Auer      : GIAO ZORA, VPT2
   Ute Becker             : Parallelization
   Giovanni Bistoni       : ED, misc. LED, open-shell LED, HFLD
   Martin Brehm           : Molecular dynamics
   Dmytro Bykov           : SCF Hessian
   Vijay G. Chilkuri      : MRCI spin determinant printing, contributions to CSF-ICE
   Dipayan Datta          : RHF DLPNO-CCSD density
   Achintya Kumar Dutta   : EOM-CC, STEOM-CC
   Dmitry Ganyushin       : Spin-Orbit,Spin-Spin,Magnetic field MRCI
   Miquel Garcia          : C-PCM Hessian, Gaussian charge scheme
   Yang Guo               : DLPNO-NEVPT2, CIM, IAO-localization
   Andreas Hansen         : Spin unrestricted coupled pair/coupled cluster methods
   Benjamin Helmich-Paris : CASSCF linear response (MC-RPA)
   Lee Huntington         : MR-EOM, pCC
   Robert Izsak           : Overlap fitted RIJCOSX, COSX-SCS-MP3, EOM
   Christian Kollmar      : KDIIS, OOCD, Brueckner-CCSD(T), CCSD density
   Simone Kossmann        : Meta GGA functionals, TD-DFT gradient, OOMP2, MP2 Hessian
   Martin Krupicka        : AUTO-CI
   Lucas Lang             : DCDCAS
   Dagmar Lenk            : GEPOL surface, SMD
   Dimitrios Liakos       : Extrapolation schemes; Compound Job, initial MDCI parallelization
   Dimitrios Manganas     : Further ROCIS development; embedding schemes
   Dimitrios Pantazis     : SARC Basis sets
   Taras Petrenko         : DFT Hessian,TD-DFT gradient, ASA, ECA, R-Raman, ABS, FL, XAS/XES, NRVS
   Peter Pinski           : DLPNO-MP2, DLPNO-MP2 Gradient
   Christoph Reimann      : Effective Core Potentials
   Marius Retegan         : Local ZFS, SOC
   Christoph Riplinger    : Optimizer, TS searches, QM/MM, DLPNO-CCSD(T), (RO)-DLPNO pert. Triples
   Tobias Risthaus        : Range-separated hybrids, TD-DFT gradient, RPA, STAB
   Michael Roemelt        : Original ROCIS implementation
   Masaaki Saitow         : Open-shell DLPNO-CCSD energy and density
   Barbara Sandhoefer     : DKH picture change effects
   Avijit Sen             : IP-ROCIS
   Kantharuban Sivalingam : CASSCF convergence, NEVPT2, FIC-MRCI
   Bernardo de Souza      : ESD, SOC TD-DFT
   Georgi Stoychev        : AutoAux, RI-MP2 NMR
   Willem Van den Heuvel  : Paramagnetic NMR
   Boris Wezisla          : Elementary symmetry handling
   Frank Wennmohs         : Technical directorship


 We gratefully acknowledge several colleagues who have allowed us to
 interface, adapt or use parts of their codes:
   Stefan Grimme, W. Hujo, H. Kruse,             : VdW corrections, initial TS optimization,
                  C. Bannwarth                     DFT functionals, gCP, sTDA/sTD-DF
   Ed Valeev, F. Pavosevic, A. Kumar             : LibInt (2-el integral package), F12 methods
   Garnet Chan, S. Sharma, J. Yang, R. Olivares  : DMRG
   Ulf Ekstrom                                   : XCFun DFT Library
   Mihaly Kallay                                 : mrcc  (arbitrary order and MRCC methods)
   Andreas Klamt, Michael Diedenhofen            : otool_cosmo (COSMO solvation model)
   Jiri Pittner, Ondrej Demel                    : Mk-CCSD
   Frank Weinhold                                : gennbo (NPA and NBO analysis)
   Christopher J. Cramer and Donald G. Truhlar   : smd solvation model
   Lars Goerigk                                  : TD-DFT with DH, B97 family of functionals
   V. Asgeirsson, H. Jonsson                     : NEB implementation
   FAccTs GmbH                                   : IRC, NEB, NEB-TS, Multilevel, MM, QM/MM, CI optimization
   S Lehtola, MJT Oliveira, MAL Marques          : LibXC Library


 Your calculation uses the libint2 library for the computation of 2-el integrals
 For citations please refer to: http://libint.valeyev.net

 Your ORCA version has been built with support for libXC version: 4.2.3
 For citations please refer to: https://tddft.org/programs/libxc/

 This ORCA versions uses:
   CBLAS   interface :  Fast vector & matrix operations
   LAPACKE interface :  Fast linear algebra routines
   SCALAPACK package :  Parallel linear algebra routines




***************************************
The coordinates will be read from file: optimized_mta.xyz
***************************************


----- Orbital basis set information -----
Your calculation utilizes the basis: def2-TZVP
   F. Weigend and R. Ahlrichs, Phys. Chem. Chem. Phys. 7, 3297 (2005).

================================================================================
                                        WARNINGS
                       Please study these warnings very carefully!
================================================================================


WARNING: Analytical and numerical frequencies both set to true
  ===> : Disabling Anfreq
WARNING: Gradients needed for Numerical Frequencies
  ===> : Setting RunTyp to EnGrad
INFO   : Checking CIS options ...

WARNING: The environment variable RSH_COMMAND is not set!
  ===> : All Displacements for the Numerical Hessian calculation
         will be started on localhost

WARNING: CIS/ROCIS methods need fully converged wavefunctions
  ===> : Setting SCFConvForced true
         You can overwrite this default with %scf ConvForced false 


INFO   : the flag for use of LIBINT has been found!

================================================================================
                                       INPUT FILE
================================================================================
NAME = tddft.inp
|  1> ! RHF b3lyp def2-TZVP LARGEPRINT PRINTBASIS PRINTGAP TightSCF ALLPOP AnFreq NumFreq bohrs
|  2> 
|  3> %pal nprocs 16
|  4> end
|  5> 
|  6> %tddft 
|  7>   NRoots 25
|  8> end
|  9> 
| 10> %plots Format Cube
| 11>   MO("HOMO-8.cube",8,0);
| 12>   MO("LUMO-9.cube",9,0);
| 13> end
| 14> 
| 15> * xyzfile 0 1 optimized_mta.xyz
| 16> 
| 17>                          ****END OF INPUT****
================================================================================

                     *******************************
                     * Energy+Gradient Calculation *
                     *******************************

---------------------------------
CARTESIAN COORDINATES (ANGSTROEM)
---------------------------------
  N      0.476294    0.038613    0.066443
  C     -0.297051    0.030724    0.053063
  H     -0.494160    0.573339    0.064489
  H     -0.494300   -0.231782    0.528209
  H     -0.534600   -0.234340   -0.406986
  H      0.672173   -0.460594    0.063452
  H      0.671645    0.284013   -0.368670

----------------------------
CARTESIAN COORDINATES (A.U.)
----------------------------
  NO LB      ZA    FRAG     MASS         X           Y           Z
   0 N     7.0000    0    14.007    0.900065    0.072968    0.125560
   1 C     6.0000    0    12.011   -0.561345    0.058060    0.100275
   2 H     1.0000    0     1.008   -0.933828    1.083453    0.121867
   3 H     1.0000    0     1.008   -0.934092   -0.438005    0.998171
   4 H     1.0000    0     1.008   -1.010248   -0.442838   -0.769092
   5 H     1.0000    0     1.008    1.270223   -0.870397    0.119906
   6 H     1.0000    0     1.008    1.269225    0.536707   -0.696686

--------------------------------
INTERNAL COORDINATES (ANGSTROEM)
--------------------------------
 N      0   0   0     0.000000000000     0.00000000     0.00000000
 C      1   0   0     0.773500837446     0.00000000     0.00000000
 H      2   1   0     0.577419538644   109.35178715     0.00000000
 H      2   1   3     0.577564387617   109.38139570   242.98934118
 H      2   1   3     0.581664618883   115.25466768   121.49890243
 H      1   2   3     0.536269978118   110.83009330   179.16905940
 H      1   2   3     0.536383543604   110.77877729   297.48441444

---------------------------
INTERNAL COORDINATES (A.U.)
---------------------------
 N      0   0   0     0.000000000000     0.00000000     0.00000000
 C      1   0   0     1.461704747132     0.00000000     0.00000000
 H      2   1   0     1.091164792413   109.35178715     0.00000000
 H      2   1   3     1.091438517302   109.38139570   242.98934118
 H      2   1   3     1.099186831481   115.25466768   121.49890243
 H      1   2   3     1.013403392487   110.83009330   179.16905940
 H      1   2   3     1.013618000154   110.77877729   297.48441444

---------------------
BASIS SET INFORMATION
---------------------
There are 3 groups of distinct atoms

 Group   1 Type N   : 11s6p2d1f contracted to 5s3p2d1f pattern {62111/411/11/1}
 Group   2 Type C   : 11s6p2d1f contracted to 5s3p2d1f pattern {62111/411/11/1}
 Group   3 Type H   : 5s1p contracted to 3s1p pattern {311/1}

Atom   0N    basis set group =>   1
Atom   1C    basis set group =>   2
Atom   2H    basis set group =>   3
Atom   3H    basis set group =>   3
Atom   4H    basis set group =>   3
Atom   5H    basis set group =>   3
Atom   6H    basis set group =>   3

-------------------------
BASIS SET IN INPUT FORMAT
-------------------------

 # Basis set for element : H 
 NewGTO H 
 S 3 
   1      34.0613410000      0.0254393072
   2       5.1235746000      0.1900859489
   3       1.1646626000      0.8524411301
 S 1 
   1       0.3272304100      1.0000000000
 S 1 
   1       0.1030724100      1.0000000000
 P 1 
   1       0.8000000000      1.0000000000
  end;

 # Basis set for element : C 
 NewGTO C 
 S 6 
   1   13575.3496820000      0.0006064549
   2    2035.2333680000      0.0046979088
   3     463.2256235900      0.0243324776
   4     131.2001959800      0.0973999683
   5      42.8530158910      0.3019558425
   6      15.5841857660      0.6623360915
 S 2 
   1       6.2067138508      0.6559530854
   2       2.5764896527      0.3758563329
 S 1 
   1       0.5769633942      1.0000000000
 S 1 
   1       0.2297283136      1.0000000000
 S 1 
   1       0.0951644400      1.0000000000
 P 4 
   1      34.6972322440      0.0113272200
   2       7.9582622826      0.0761696592
   3       2.3780826883      0.3019225220
   4       0.8143320818      0.7278502735
 P 1 
   1       0.2888754725      1.0000000000
 P 1 
   1       0.1005682367      1.0000000000
 D 1 
   1       1.0970000000      1.0000000000
 D 1 
   1       0.3180000000      1.0000000000
 F 1 
   1       0.7610000000      1.0000000000
  end;

 # Basis set for element : N 
 NewGTO N 
 S 6 
   1   19730.8006470000      0.0005862639
   2    2957.8958745000      0.0045428821
   3     673.2213359500      0.0235584136
   4     190.6824949400      0.0947091933
   5      62.2954418980      0.2971978492
   6      22.6541611820      0.6691624689
 S 2 
   1       8.9791477428      0.6459668363
   2       3.6863002370      0.3870057440
 S 1 
   1       0.8466007680      1.0000000000
 S 1 
   1       0.3364713377      1.0000000000
 S 1 
   1       0.1364765367      1.0000000000
 P 4 
   1      49.2003805100      0.0114488252
   2      11.3467905370      0.0784223379
   3       3.4273972411      0.3081809474
   4       1.1785525134      0.7202719637
 P 1 
   1       0.4164220497      1.0000000000
 P 1 
   1       0.1426082601      1.0000000000
 D 1 
   1       1.6540000000      1.0000000000
 D 1 
   1       0.4690000000      1.0000000000
 F 1 
   1       1.0930000000      1.0000000000
  end;



           ************************************************************
           *        Program running with 16 parallel MPI-processes    *
           *              working on a common directory               *
           ************************************************************
------------------------------------------------------------------------------
                           ORCA GTO INTEGRAL CALCULATION
------------------------------------------------------------------------------

                         BASIS SET STATISTICS AND STARTUP INFO

 # of primitive gaussian shells          ...   70
 # of primitive gaussian functions       ...  132
 # of contracted shells                  ...   42
 # of contracted basis functions         ...   92
 Highest angular momentum                ...    3
 Maximum contraction depth               ...    6
 Integral package used                   ... LIBINT
 Integral threshhold            Thresh   ...  2.500e-11
 Primitive cut-off              TCut     ...  2.500e-12


------------------------------ INTEGRAL EVALUATION ----------------------------


 * One electron integrals 
 Pre-screening matrix                    ... done
 Shell pair data                         ... done (   0.000 sec)



           ************************************************************
           *        Program running with 16 parallel MPI-processes    *
           *              working on a common directory               *
           ************************************************************
-------------------------------------------------------------------------------
                                 ORCA SCF
-------------------------------------------------------------------------------

------------
SCF SETTINGS
------------
Hamiltonian:
 Density Functional     Method          .... DFT(GTOs)
 Exchange Functional    Exchange        .... B88
   X-Alpha parameter    XAlpha          ....  0.666667
   Becke's b parameter  XBeta           ....  0.004200
 Correlation Functional Correlation     .... LYP
 LDA part of GGA corr.  LDAOpt          .... VWN-5
 Gradients option       PostSCFGGA      .... off
 Hybrid DFT is turned on
   Fraction HF Exchange ScalHFX         ....  0.200000
   Scaling of DF-GGA-X  ScalDFX         ....  0.720000
   Scaling of DF-GGA-C  ScalDFC         ....  0.810000
   Scaling of DF-LDA-C  ScalLDAC        ....  1.000000
   Perturbative correction              ....  0.000000
   Density functional embedding theory  .... OFF
   NL short-range parameter             ....  4.800000


General Settings:
 Integral files         IntName         .... tddft
 Hartree-Fock type      HFTyp           .... RHF
 Total Charge           Charge          ....    0
 Multiplicity           Mult            ....    1
 Number of Electrons    NEL             ....   18
 Basis Dimension        Dim             ....   92
 Nuclear Repulsion      ENuc            ....     79.3827180003 Eh

Convergence Acceleration:
 DIIS                   CNVDIIS         .... on
   Start iteration      DIISMaxIt       ....    12
   Startup error        DIISStart       ....  0.200000
   # of expansion vecs  DIISMaxEq       ....     5
   Bias factor          DIISBfac        ....   1.050
   Max. coefficient     DIISMaxC        ....  10.000
 Newton-Raphson         CNVNR           .... off
 SOSCF                  CNVSOSCF        .... on
   Start iteration      SOSCFMaxIt      ....   150
   Startup grad/error   SOSCFStart      ....  0.003300
 Level Shifting         CNVShift        .... on
   Level shift para.    LevelShift      ....    0.2500
   Turn off err/grad.   ShiftErr        ....    0.0010
 Zerner damping         CNVZerner       .... off
 Static damping         CNVDamp         .... on
   Fraction old density DampFac         ....    0.7000
   Max. Damping (<1)    DampMax         ....    0.9800
   Min. Damping (>=0)   DampMin         ....    0.0000
   Turn off err/grad.   DampErr         ....    0.1000
 Fernandez-Rico         CNVRico         .... off

SCF Procedure:
 Maximum # iterations   MaxIter         ....   125
 SCF integral mode      SCFMode         .... Direct
   Integral package                     .... LIBINT
 Reset frequency        DirectResetFreq ....    20
 Integral Threshold     Thresh          ....  2.500e-11 Eh
 Primitive CutOff       TCut            ....  2.500e-12 Eh

Convergence Tolerance:
 Convergence Check Mode ConvCheckMode   .... Total+1el-Energy
 Convergence forced     ConvForced      .... 1
 Energy Change          TolE            ....  1.000e-08 Eh
 1-El. energy change                    ....  1.000e-05 Eh
 Orbital Gradient       TolG            ....  1.000e-05
 Orbital Rotation angle TolX            ....  1.000e-05
 DIIS Error             TolErr          ....  5.000e-07


Diagonalization of the overlap matrix:
Smallest eigenvalue                        ... 3.143e-05
Time for diagonalization                   ...    0.003 sec
Threshold for overlap eigenvalues          ... 1.000e-08
Number of eigenvalues below threshold      ... 0
Time for construction of square roots      ...    0.086 sec
Total time needed                          ...    0.089 sec

-------------------
DFT GRID GENERATION
-------------------

General Integration Accuracy     IntAcc      ...  4.340
Radial Grid Type                 RadialGrid  ... Gauss-Chebyshev
Angular Grid (max. acc.)         AngularGrid ... Lebedev-110
Angular grid pruning method      GridPruning ... 3 (G Style)
Weight generation scheme         WeightScheme... Becke
Basis function cutoff            BFCut       ...    1.0000e-11
Integration weight cutoff        WCut        ...    1.0000e-14
Grids for H and He will be reduced by one unit

# of grid points (after initial pruning)     ...   7328 (   0.0 sec)
# of grid points (after weights+screening)   ...   6895 (   0.0 sec)
nearest neighbour list constructed           ...    0.0 sec
Grid point re-assignment to atoms done       ...    0.0 sec
Grid point division into batches done        ...    0.0 sec
Reduced shell lists constructed in    0.0 sec

Total number of grid points                  ...     6895
Total number of batches                      ...      112
Average number of points per batch           ...       61
Average number of grid points per atom       ...      985
Average number of shells per batch           ...    35.62 (84.82%)
Average number of basis functions per batch  ...    79.38 (86.28%)
Average number of large shells per batch     ...    34.62 (97.19%)
Average number of large basis fcns per batch ...    77.62 (97.80%)
Maximum spatial batch extension              ...  10.97, 12.00, 14.60 au
Average spatial batch extension              ...   0.19,  0.19,  0.20 au

Time for grid setup =    0.236 sec

------------------------------
INITIAL GUESS: MODEL POTENTIAL
------------------------------
Loading Hartree-Fock densities                     ... done
Calculating cut-offs                               ... done
Setting up the integral package                    ... done
Initializing the effective Hamiltonian             ... done
Starting the Coulomb interaction                   ... done (   0.0 sec)
Reading the grid                                   ... done
Mapping shells                                     ... done
Starting the XC term evaluation                    ... done (   0.0 sec)
  promolecular density results
     # of electrons  =     17.990690389
     EX              =    -14.265132116
     EC              =     -0.627704066
     EX+EC           =    -14.892836182
Transforming the Hamiltonian                       ... done (   0.0 sec)
Diagonalizing the Hamiltonian                      ... done (   0.0 sec)
Back transforming the eigenvectors                 ... done (   0.0 sec)
Now organizing SCF variables                       ... done
                      ------------------
                      INITIAL GUESS DONE (   0.5 sec)
                      ------------------
----------------------
INITIAL GUESS ORBITALS
----------------------
                      0         1         2         3         4         5   
                 -15.18064 -11.12915  -1.93841  -1.54691  -1.48708  -1.28641
                   2.00000   2.00000   2.00000   2.00000   2.00000   2.00000
                  --------  --------  --------  --------  --------  --------
  0N   1s         0.447843 -0.006129  0.115815  0.000068  0.020210 -0.026757
  0N   2s         0.623897 -0.010294  0.254744  0.000182  0.043448 -0.056245
  0N   3s         0.055010 -0.003691 -0.394050 -0.000448 -0.037794  0.084581
  0N   4s        -0.115258 -0.058729  0.882420  0.004451 -0.198556 -1.244584
  0N   5s        -0.026884 -0.012316  0.319787  0.001774 -0.137716 -0.630805
  0N   1pz       -0.008267 -0.000006  0.110680  0.246163  0.315471  0.016983
  0N   1px       -0.010060 -0.004618  0.234117  0.000779 -0.348222 -0.186337
  0N   1py       -0.004803  0.000009  0.064237 -0.424724  0.182765  0.009978
  0N   2pz        0.005775  0.003078 -0.048973 -0.047779 -0.010451  0.017542
  0N   2px        0.018433  0.022174 -0.211569 -0.002391  0.148714  0.494943
  0N   2py        0.003349  0.001775 -0.028705  0.083392 -0.004859  0.011593
  0N   3pz        0.001533  0.002560 -0.025186 -0.016314 -0.011877 -0.004034
  0N   3px        0.013827 -0.001675 -0.096715 -0.000806  0.045494  0.247810
  0N   3py        0.000888  0.001469 -0.014825  0.028392 -0.006502 -0.001774
  0N   1dz2      -0.002365 -0.002327  0.011436 -0.026550 -0.021872 -0.006418
  0N   1dxz      -0.000718  0.000218 -0.008669 -0.011417 -0.007013  0.006815
  0N   1dyz      -0.001821  0.000216  0.003632  0.017665 -0.004677  0.001154
  0N   1dx2y2     0.001998  0.004270 -0.015391 -0.015379  0.032891  0.012679
  0N   1dxy      -0.000436  0.000111 -0.004678  0.019463 -0.004043  0.003665
  0N   2dz2       0.000859 -0.000999 -0.020629  0.048156  0.017070  0.060444
  0N   2dxz       0.000733 -0.002459  0.003290  0.015563  0.014496 -0.004314
  0N   2dyz       0.001376  0.000416 -0.012003 -0.031899 -0.029557 -0.006606
  0N   2dx2y2     0.000063  0.002224  0.021660  0.028902 -0.062044 -0.111620
  0N   2dxy       0.000418 -0.001415  0.002290 -0.027294  0.008237 -0.002717
  0N   1f0        0.000009  0.000639 -0.000543 -0.008505  0.000067  0.000277
  0N   1f+1       0.001205  0.002477 -0.005541  0.003815 -0.000710 -0.002529
  0N   1f-1       0.001180  0.000831 -0.003361  0.000128  0.001522 -0.002437
  0N   1f+2      -0.000028 -0.000822  0.000728 -0.005770 -0.000121 -0.000287
  0N   1f-2      -0.000674 -0.000996 -0.002803 -0.002838 -0.007715  0.002036
  0N   1f+3       0.002193  0.004126 -0.004830 -0.002764  0.006609 -0.004817
  0N   1f-3      -0.000290  0.000419  0.000381  0.000964 -0.000083  0.000533
  1C   1s         0.002132  0.464701  0.104771  0.000076 -0.063515  0.085278
  1C   2s         0.001667  0.604432  0.214186  0.000079 -0.128769  0.170854
  1C   3s        -0.007495  0.006802 -0.350796 -0.002854  0.257766  0.248251
  1C   4s         0.067928 -0.010725 -0.468542 -0.001087  0.211046  1.290432
  1C   5s         0.034553  0.050534 -0.460108 -0.006790  0.496090  0.534688
  1C   1pz       -0.000122  0.001043  0.035652  0.212063  0.322564  0.042625
  1C   1px       -0.004238  0.012275 -0.327165 -0.000136  0.134601  0.541626
  1C   1py       -0.000076  0.000626  0.021383 -0.366419  0.186637  0.024220
  1C   2pz       -0.003233 -0.004016  0.025396 -0.013048 -0.025330 -0.017620
  1C   2px        0.041143  0.039102 -0.409923 -0.000839  0.126395  0.554081
  1C   2py       -0.001865 -0.002134  0.013329  0.020762 -0.013999 -0.016743
  1C   3pz       -0.002489 -0.000361  0.012597 -0.009627 -0.016457 -0.027287
  1C   3px        0.004427 -0.005730 -0.023549 -0.000472 -0.011283  0.125684
  1C   3py       -0.001450 -0.000224  0.006921  0.018217 -0.009583 -0.015529
  1C   1dz2       0.000956 -0.002305  0.015410  0.004764  0.000980 -0.017319
  1C   1dxz       0.000569  0.000417  0.005871  0.026585  0.037385  0.005232
  1C   1dyz       0.000478 -0.000447 -0.001123 -0.003403 -0.004213  0.001191
  1C   1dx2y2    -0.001101  0.003448 -0.027602  0.002520 -0.006948  0.032637
  1C   1dxy       0.000322  0.000201  0.003913 -0.045690  0.021176  0.002696
  1C   2dz2      -0.003703 -0.004572  0.041585 -0.047685  0.016451 -0.036766
  1C   2dxz       0.001284  0.000455  0.002172  0.044586  0.071453  0.020912
  1C   2dyz       0.002061  0.001254 -0.009043  0.032024  0.045025  0.021257
  1C   2dx2y2     0.008815  0.009248 -0.080455 -0.028159  0.023727  0.093602
  1C   2dxy       0.000742  0.000225  0.002197 -0.077531  0.040995  0.014133
  1C   1f0       -0.001310 -0.000008  0.003490  0.002190  0.002359 -0.004387
  1C   1f+1       0.000002 -0.002400  0.002461  0.008116 -0.002482  0.002443
  1C   1f-1       0.000020 -0.002733  0.006157  0.000350  0.000772  0.007904
  1C   1f+2       0.001723  0.000003 -0.004740  0.002974 -0.003260  0.005708
  1C   1f-2      -0.000038 -0.000583 -0.002563 -0.006275 -0.018692  0.002576
  1C   1f+3       0.000037 -0.002577  0.005773 -0.006192  0.014353  0.002899
  1C   1f-3      -0.001292  0.000723  0.001748  0.002133  0.002041 -0.006090
  2H   1s         0.001803  0.004593 -0.048870 -0.094290  0.101241 -0.162162
  2H   2s         0.009525  0.026152 -0.131755 -0.205166  0.144072 -0.120829
  2H   3s        -0.004791 -0.017180  0.104119 -0.046141 -0.115567 -0.036452
  2H   1pz       -0.000284 -0.000531  0.000690  0.000546 -0.013156  0.000699
  2H   1px        0.001422  0.003193 -0.020132  0.002783 -0.002454 -0.005255
  2H   1py        0.000233 -0.007026  0.020654  0.014672 -0.020466  0.050291
  3H   1s         0.001804  0.004649 -0.049450  0.094373  0.101283 -0.162995
  3H   2s         0.009514  0.026493 -0.136882  0.204754  0.144757 -0.133203
  3H   3s        -0.004829 -0.017228  0.103750  0.048033 -0.115559 -0.036045
  3H   1pz        0.000042 -0.006346  0.018579 -0.013255 -0.024354  0.042860
  3H   1px        0.001426  0.003188 -0.020063 -0.003654 -0.002787 -0.004216
  3H   1py       -0.000382  0.003061 -0.009911  0.007198 -0.000888 -0.024848
  4H   1s         0.000490  0.004944 -0.053875 -0.000295 -0.052374 -0.196529
  4H   2s        -0.000021  0.021176 -0.098194 -0.000812 -0.149365 -0.253521
  4H   3s        -0.009349 -0.017898  0.113113  0.002726 -0.193921 -0.108011
  4H   1pz        0.001218  0.006288 -0.023043 -0.005296  0.000455 -0.041498
  4H   1px       -0.000924  0.004585 -0.011713 -0.000100  0.025867 -0.015134
  4H   1py        0.000716  0.003624 -0.013661  0.009858  0.000002 -0.024670
  5H   1s        -0.002815 -0.000471 -0.117975  0.150013 -0.146220  0.009737
  5H   2s         0.015483  0.005767 -0.178860  0.134349 -0.111771  0.046402
  5H   3s        -0.006306  0.002637  0.029843  0.007209 -0.016221 -0.083225
  5H   1pz        0.000092 -0.000289 -0.000241 -0.006059 -0.003586  0.001265
  5H   1px       -0.000953 -0.004801  0.031287 -0.023991 -0.000856 -0.016271
  5H   1py       -0.000050 -0.000173 -0.026599 -0.018436 -0.008730  0.017490
  6H   1s        -0.002778 -0.000451 -0.118571 -0.150270 -0.146758  0.010025
  6H   2s         0.015501  0.005797 -0.179816 -0.135153 -0.113328  0.044462
  6H   3s        -0.006293  0.002660  0.030718 -0.005504 -0.016405 -0.083861
  6H   1pz        0.000006 -0.000276 -0.023529  0.018828 -0.008906  0.015986
  6H   1px       -0.000954 -0.004810  0.031378  0.024376 -0.000145 -0.016598
  6H   1py        0.000102 -0.000164  0.013086 -0.003634  0.000921 -0.007940
                      6         7         8         9        10        11   
                  -1.23460  -0.90712  -0.65325  -0.04336  -0.00707   0.01401
                   2.00000   2.00000   2.00000   0.00000   0.00000   0.00000
                  --------  --------  --------  --------  --------  --------
  0N   1s         0.051908  0.000026 -0.028552 -0.031669  0.001888  0.008881
  0N   2s         0.115643  0.000015 -0.066610 -0.079671  0.004578  0.020934
  0N   3s        -0.160040  0.000395  0.115691  0.239261 -0.011916 -0.066757
  0N   4s        -0.441524 -0.005171  0.453385  1.007181 -0.157608  1.301828
  0N   5s        -0.155033 -0.001422  0.184914  3.424657 -0.206167  1.798118
  0N   1pz       -0.085385  0.206055  0.472104 -0.019281  0.076465  0.084222
  0N   1px       -0.403077 -0.001317  0.140104  0.066889 -0.004601 -0.018844
  0N   1py       -0.048669 -0.356580  0.273637 -0.020768 -0.141077  0.038744
  0N   2pz       -0.019685  0.049178  0.250772 -0.062752  0.084150 -0.121716
  0N   2px        0.175631  0.005331  0.027464 -0.225124  0.020680 -0.253207
  0N   2py       -0.010439 -0.084791  0.144428 -0.038349 -0.101599 -0.077293
  0N   3pz       -0.013976 -0.013011  0.073758 -0.206017  0.479598  0.136199
  0N   3px        0.062160  0.000592  0.000661 -0.276436  0.029619 -1.214460
  0N   3py       -0.008661  0.022362  0.041816 -0.210716 -0.791618  0.030282
  0N   1dz2      -0.007984 -0.025427 -0.015233 -0.003105 -0.001557 -0.001995
  0N   1dxz       0.038961  0.012035 -0.007092 -0.001571 -0.011651 -0.015567
  0N   1dyz       0.012024  0.016739 -0.021202 -0.002677  0.001444  0.003568
  0N   1dx2y2     0.027773 -0.014597  0.002174  0.003485 -0.001315  0.006613
  0N   1dxy       0.022641 -0.020826 -0.003944  0.000209  0.022339 -0.007269
  0N   2dz2       0.026354  0.028488 -0.009048 -0.044923  0.008057 -0.028768
  0N   2dxz      -0.037892 -0.029898 -0.025099  0.006047 -0.047470 -0.012545
  0N   2dyz      -0.000868 -0.019294 -0.007963 -0.012369  0.003024  0.012797
  0N   2dx2y2    -0.046882  0.014652  0.008122  0.057257 -0.000506  0.060749
  0N   2dxy      -0.021253  0.049630 -0.014077  0.008475  0.071724 -0.000211
  0N   1f0       -0.002830 -0.006096 -0.004903  0.002089 -0.001693  0.002878
  0N   1f+1       0.004089 -0.003262 -0.004108  0.004354  0.007181  0.004627
  0N   1f-1      -0.001185  0.002056 -0.002902  0.001653  0.000147  0.000624
  0N   1f+2       0.004120  0.000571  0.006099 -0.002293  0.000626 -0.003116
  0N   1f-2       0.007240  0.002103 -0.009014  0.000693 -0.005714 -0.001866
  0N   1f+3      -0.001759  0.002662  0.002855  0.003541 -0.006436  0.006231
  0N   1f-3      -0.002706  0.006570 -0.003425  0.001428  0.001038  0.002353
  1C   1s        -0.039146 -0.000076  0.007350 -0.031560  0.002146 -0.021420
  1C   2s        -0.079261 -0.000174  0.014305 -0.069619  0.004724 -0.047835
  1C   3s         0.247157  0.003535 -0.041530 -0.061072  0.004158 -0.079500
  1C   4s         0.336076  0.004456 -0.098185 -1.010095  0.140141 -0.928204
  1C   5s         0.654362 -0.001887 -0.152241  0.622167 -0.748254-11.668960
  1C   1pz       -0.386612 -0.280276 -0.330216 -0.036352  0.091894  0.181526
  1C   1px        0.138989  0.000769  0.006486 -0.092776  0.007885 -0.090810
  1C   1py       -0.225253  0.482686 -0.190595 -0.031516 -0.184721  0.089511
  1C   2pz        0.014027 -0.030012  0.018439  0.155344 -0.312026 -0.221583
  1C   2px        0.231589  0.001015 -0.058931 -0.550183  0.064421 -0.957147
  1C   2py        0.010103  0.046505  0.010401  0.062950  0.590195 -0.098493
  1C   3pz       -0.015156 -0.024478 -0.044479  0.005596  0.018037  0.036211
  1C   3px       -0.004375  0.000869 -0.001614 -0.518599  0.069992 -0.122320
  1C   3py       -0.009242  0.044009 -0.026159  0.226170  0.156346  0.009389
  1C   1dz2       0.003815 -0.013863  0.006374 -0.004893  0.007270  0.010544
  1C   1dxz      -0.021874  0.009244  0.047980  0.001995  0.013314  0.029241
  1C   1dyz       0.006357  0.009392  0.007676  0.001656 -0.007383  0.008406
  1C   1dx2y2     0.000548 -0.008085 -0.001678  0.013226  0.003243 -0.008601
  1C   1dxy      -0.012455 -0.017168  0.028474 -0.000704 -0.028328  0.014518
  1C   2dz2      -0.037077  0.024712 -0.013164  0.002404 -0.137332  0.148008
  1C   2dxz      -0.056787 -0.017644 -0.014453 -0.014545  0.009701  0.096839
  1C   2dyz      -0.038077 -0.015730 -0.048912 -0.042815  0.064283  0.108602
  1C   2dx2y2     0.017871  0.015020 -0.033580 -0.035206 -0.066252 -0.153440
  1C   2dxy      -0.033341  0.030652 -0.007916  0.002463 -0.045528  0.051029
  1C   1f0       -0.000036  0.005950  0.001779  0.000987 -0.001206 -0.008533
  1C   1f+1       0.012425 -0.017181  0.003681  0.002545  0.012802 -0.002606
  1C   1f-1       0.001601 -0.001525 -0.000804 -0.006415  0.001581 -0.011262
  1C   1f+2      -0.000176  0.001075 -0.002456 -0.001600  0.002160  0.010257
  1C   1f-2       0.019618  0.012918  0.003924  0.006709 -0.009652 -0.006878
  1C   1f+3      -0.002408  0.013337  0.001016 -0.007996 -0.010506  0.000327
  1C   1f-3       0.000055 -0.005143  0.001904  0.003310  0.008870 -0.003257
  2H   1s        -0.050825  0.197285 -0.109321  0.015290 -0.015737  0.034581
  2H   2s        -0.074117  0.227750 -0.215009 -0.026921 -0.673967  0.073467
  2H   3s        -0.167554 -0.055276  0.048288 -1.007426  1.251859  1.855020
  2H   1pz        0.011327  0.008645  0.001841  0.008035 -0.010355 -0.022745
  2H   1px        0.005186  0.005294 -0.005922  0.009152 -0.016153  0.036824
  2H   1py        0.000759 -0.010255  0.009140 -0.034260  0.025859 -0.040007
  3H   1s        -0.049671 -0.198561 -0.109385  0.019474  0.009282  0.035747
  3H   2s        -0.068381 -0.224730 -0.215367 -0.096565  0.587757  0.114820
  3H   3s        -0.169043  0.054909  0.046282 -0.531701 -0.740398  1.706352
  3H   1pz        0.006457  0.004552  0.008665 -0.022303 -0.005786 -0.044200
  3H   1px        0.005683 -0.003940 -0.006240  0.009224  0.011518  0.036803
  3H   1py        0.009698 -0.013003 -0.002649  0.027279  0.024893  0.002471
  4H   1s         0.163145  0.000715  0.182543  0.048458 -0.001717  0.016658
  4H   2s         0.259482 -0.001889  0.329764  0.254308  0.073821 -0.673909
  4H   3s        -0.207512  0.002557  0.019444 -0.780761  0.306883  3.899825
  4H   1pz        0.015156  0.003783  0.003402  0.029530 -0.015222 -0.018036
  4H   1px        0.001776  0.000365  0.007861  0.010617  0.004327  0.005287
  4H   1py        0.008860 -0.006465  0.001976  0.021670  0.030486 -0.008384
  5H   1s        -0.128836  0.175855 -0.044986  0.024622 -0.008880 -0.013103
  5H   2s        -0.154960  0.227210 -0.084753 -0.354133 -0.206734 -0.098816
  5H   3s        -0.043733  0.050423 -0.000957 -1.160667 -2.102632  1.594824
  5H   1pz        0.005893  0.002396  0.017933  0.002859  0.002876  0.003816
  5H   1px       -0.018712  0.001326  0.009607  0.009801  0.014623 -0.008033
  5H   1py       -0.021699  0.002602 -0.002195  0.003286  0.015212 -0.019583
  6H   1s        -0.128553 -0.177413 -0.045796  0.025180  0.007013 -0.011905
  6H   2s        -0.154737 -0.229209 -0.084508 -0.331560  0.296497 -0.065770
  6H   3s        -0.042667 -0.050708 -0.000035 -0.978826  2.293907  1.821135
  6H   1pz       -0.016232 -0.003454  0.007673 -0.000641 -0.010319 -0.017485
  6H   1px       -0.019460 -0.002871  0.009817  0.008173 -0.017652 -0.012074
  6H   1py        0.015208 -0.001503  0.017081  0.000550  0.005833  0.012611
                     12        13        14        15        16        17   
                   0.03428   0.07855   0.08403   0.09487   0.15498   0.20411
                   0.00000   0.00000   0.00000   0.00000   0.00000   0.00000
                  --------  --------  --------  --------  --------  --------
  0N   1s         0.023055  0.000918 -0.002823  0.008549 -0.000081  0.003826
  0N   2s         0.053549  0.002615 -0.006924  0.022706 -0.000183  0.012677
  0N   3s        -0.110608 -0.021194  0.057580 -0.095198 -0.001767 -0.055951
  0N   4s        -0.345280 -0.063947  0.514714  0.760961  0.055843  4.324802
  0N   5s        -2.215856 -0.682912  0.736014 -0.627864  0.163050  8.852071
  0N   1pz       -0.046256 -0.029472 -0.050509 -0.009933 -0.058645  0.182408
  0N   1px       -0.007047  0.040685 -0.081406  0.124870  0.001302  0.060140
  0N   1py       -0.019982  0.064134 -0.002999 -0.020457  0.104943  0.108183
  0N   2pz        0.094977 -0.173135 -0.090894 -0.114989  0.032513 -0.291907
  0N   2px        0.101451 -0.051325  0.242594 -0.074570 -0.014807 -0.499829
  0N   2py        0.055202  0.273069  0.042745 -0.134379 -0.066535 -0.160270
  0N   3pz        0.105036 -0.587616 -0.942897 -0.872298  0.130869 -1.677497
  0N   3px        0.227387  0.252388  0.024394  0.697972 -0.036265 -2.387818
  0N   3py        0.074938  1.049122 -0.203011 -0.750035 -0.233010 -0.980684
  0N   1dz2       0.003045 -0.023859  0.000350  0.024812  0.012951  0.002343
  0N   1dxz       0.011492 -0.004634 -0.006233 -0.008082  0.002596 -0.013798
  0N   1dyz      -0.000192  0.011551  0.036817  0.014964 -0.009235  0.005846
  0N   1dx2y2    -0.004529 -0.023235  0.022236 -0.013184  0.007492  0.000626
  0N   1dxy       0.005007  0.008280 -0.001133 -0.006479 -0.004757 -0.008414
  0N   2dz2       0.005304 -0.012368  0.023940  0.060552 -0.021993 -0.025039
  0N   2dxz      -0.038784  0.046467 -0.051645  0.083093  0.075694  0.013651
  0N   2dyz       0.004892 -0.005616  0.042540 -0.003373  0.011258 -0.048015
  0N   2dx2y2     0.003907 -0.022592  0.002729 -0.090419 -0.010826 -0.009622
  0N   2dxy      -0.028517 -0.004466 -0.034486  0.058359 -0.131087  0.011166
  0N   1f0       -0.001766  0.005304  0.000072 -0.000867  0.001922 -0.000220
  0N   1f+1      -0.004032 -0.000471 -0.000724 -0.008858 -0.001738 -0.001494
  0N   1f-1       0.002100  0.002401 -0.007627 -0.000211 -0.002213 -0.007745
  0N   1f+2       0.001651  0.004482  0.003436 -0.001122 -0.004602  0.001508
  0N   1f-2      -0.002970  0.000587 -0.005955 -0.002082  0.001501  0.000269
  0N   1f+3      -0.000894 -0.002324  0.003926 -0.009663  0.001287 -0.001860
  0N   1f-3      -0.001966  0.002382  0.001577 -0.000201 -0.008344  0.001171
  1C   1s        -0.015620  0.004871 -0.012881  0.018729  0.000491  0.009492
  1C   2s        -0.032561  0.010930 -0.028501  0.043378  0.001223  0.020371
  1C   3s        -0.105192 -0.016838  0.099319  0.034141 -0.008294  0.103113
  1C   4s         1.180358  0.102092  0.206442 -0.105885 -0.031572 -3.803128
  1C   5s        -0.374692  3.407188  0.247271  3.461414 -1.563932-29.383506
  1C   1pz       -0.137316  0.068845  0.035583  0.072328  0.072069 -0.040409
  1C   1px       -0.091366 -0.019444  0.045636 -0.034397  0.000890 -0.015427
  1C   1py       -0.069516 -0.103906 -0.014565  0.064583 -0.120393 -0.020653
  1C   2pz        0.095030  0.009993 -0.375286  0.077962 -0.001461  0.791024
  1C   2px        0.156513  0.007771  0.086003 -0.240065 -0.042781 -2.065099
  1C   2py        0.027852  0.215937 -0.150074  0.080994  0.009242  0.478891
  1C   3pz       -0.005868  1.295516  4.558878  1.271988 -1.516026  0.584878
  1C   3px        1.495429  0.741881 -1.122030  3.016138  0.074517 -0.599766
  1C   3py        0.080903 -4.148181  1.495264  1.440609  2.565827  0.355574
  1C   1dz2       0.007504 -0.064320  0.003717  0.051725  0.013960  0.023178
  1C   1dxz      -0.030598  0.006170 -0.012518  0.013229  0.011212  0.025187
  1C   1dyz      -0.015128  0.036782  0.074550  0.039834 -0.011540  0.034731
  1C   1dx2y2    -0.032667 -0.048586  0.026333 -0.010197  0.008660 -0.007540
  1C   1dxy      -0.016073  0.000874 -0.005844  0.008119 -0.017665  0.016633
  1C   2dz2      -0.047878 -0.222609  0.021635  0.162184 -0.019928  0.211030
  1C   2dxz      -0.119566  0.069592  0.035250  0.115145  0.081609  0.007588
  1C   2dyz      -0.101785  0.125340  0.279111  0.148393  0.009616 -0.031786
  1C   2dx2y2    -0.031896 -0.153375  0.094963 -0.037508 -0.016762 -0.448383
  1C   2dxy      -0.061713 -0.075574 -0.004492  0.075801 -0.129047  0.008937
  1C   1f0        0.009562 -0.005664  0.005656 -0.002860 -0.003467 -0.007932
  1C   1f+1      -0.011358 -0.016535 -0.002531  0.002544  0.000438  0.009343
  1C   1f-1      -0.011796  0.001991  0.000555  0.011589  0.002883  0.014653
  1C   1f+2      -0.011806  0.003243 -0.008996  0.004553  0.005209  0.009353
  1C   1f-2      -0.002228  0.011722  0.005176  0.005952 -0.001054 -0.000348
  1C   1f+3      -0.008903  0.012139  0.001625 -0.009454 -0.001033  0.014997
  1C   1f-3       0.013349 -0.000780  0.007333 -0.004989  0.010154 -0.009158
  2H   1s         0.026680  0.055004 -0.016749 -0.011953 -0.045156 -0.015437
  2H   2s        -0.172278 -0.538775  0.113479  0.030830 -0.535187 -1.128078
  2H   3s         0.845349  7.178720 -3.075722 -2.153880 -1.058792  8.467376
  2H   1pz        0.012796  0.008191  0.030093  0.004150 -0.013707 -0.003322
  2H   1px        0.029091 -0.016568 -0.015980  0.031738 -0.037592 -0.030634
  2H   1py       -0.002952  0.052929 -0.007454  0.007270  0.050889  0.061718
  3H   1s         0.026577 -0.040717 -0.038861  0.004284  0.045763 -0.017647
  3H   2s        -0.197044  0.454737  0.387808  0.000323  0.499810 -1.068728
  3H   3s         1.079262 -6.687289 -6.349252 -0.171024  2.077145  8.521084
  3H   1pz        0.004050 -0.047214 -0.011738  0.024580 -0.034062  0.053607
  3H   1px        0.033106  0.027344 -0.003152  0.025622  0.037519 -0.024773
  3H   1py        0.012771 -0.000461  0.035700 -0.002312  0.037149 -0.031613
  4H   1s         0.024250 -0.011036  0.056788  0.023992 -0.001107  0.054929
  4H   2s         0.471931  0.007168 -0.419390 -0.485387 -0.008275  0.477171
  4H   3s        -0.822048 -1.908630  6.869709  4.713256  0.426826  5.795964
  4H   1pz        0.053061  0.012167  0.004989 -0.071634 -0.016688 -0.011460
  4H   1px        0.073742 -0.001304 -0.001109  0.008524  0.002807  0.034722
  4H   1py        0.031977 -0.039817 -0.007027 -0.032310  0.029043 -0.004802
  5H   1s        -0.030564  0.034096 -0.030520 -0.004973 -0.045876 -0.022898
  5H   2s         0.040174  0.682247 -0.530592 -0.434009 -0.662953 -1.432081
  5H   3s         0.345756 -0.740956  1.181580 -2.873644  4.021618  1.583529
  5H   1pz        0.003867 -0.018592 -0.030503 -0.031480  0.003940 -0.023870
  5H   1px       -0.014538 -0.044831  0.014708  0.035530  0.024100  0.051743
  5H   1py       -0.019445  0.006045 -0.031918  0.004814 -0.053241 -0.068040
  6H   1s        -0.030628 -0.015942 -0.044008  0.003716  0.047300 -0.026696
  6H   2s         0.044009 -0.456449 -0.836170 -0.234077  0.643884 -1.463815
  6H   3s         0.142194 -1.118948  0.941291 -2.709626 -3.915093  1.628630
  6H   1pz       -0.009673  0.017497 -0.037520 -0.012958  0.043422 -0.070884
  6H   1px       -0.014052  0.042882  0.034972  0.017725 -0.023233  0.050426
  6H   1py        0.011782  0.009424 -0.003775 -0.034352 -0.029288  0.011113
                     18        19        20        21        22        23   
                   0.26949   0.31173   0.34179   0.36033   0.38141   0.41063
                   0.00000   0.00000   0.00000   0.00000   0.00000   0.00000
                  --------  --------  --------  --------  --------  --------
  0N   1s         0.013900  0.000429 -0.001480  0.046130 -0.009596  0.003837
  0N   2s         0.036095  0.001172  0.001096  0.102964 -0.021884  0.007888
  0N   3s        -0.112856 -0.013277 -0.204920  0.116048 -0.015284  0.035396
  0N   4s         0.982808  0.142819  3.164969  0.405717 -0.593840  1.795802
  0N   5s        -1.457550  0.496012  8.841122 13.697477 -4.135043  6.936291
  0N   1pz        0.052947  0.079641 -0.052572 -0.038777 -0.100254 -0.131173
  0N   1px       -0.023908  0.006261  0.118905 -0.031194 -0.009533  0.101523
  0N   1py        0.022218 -0.141637  0.004282  0.036484  0.195488 -0.070070
  0N   2pz       -0.092051 -0.486369  0.286800 -0.407567 -0.002958 -0.064579
  0N   2px       -0.302288 -0.073701 -1.182598  0.051467  0.084548 -0.073087
  0N   2py       -0.080117  0.865734  0.145723 -0.198469  0.200773 -0.049845
  0N   3pz       -0.821583 -2.213561  1.542361 -0.398047  0.939900  2.450490
  0N   3px       -0.285401 -0.353272 -7.085128 -0.540938  0.837269 -2.968148
  0N   3py       -0.433106  3.965399  0.468107 -0.773051 -1.637936  1.311903
  0N   1dz2       0.013435 -0.021434  0.006594 -0.009955 -0.039540  0.029661
  0N   1dxz      -0.000054 -0.007422  0.011652  0.027928  0.007163  0.011004
  0N   1dyz       0.000003  0.013537 -0.025700  0.008247  0.026790  0.055414
  0N   1dx2y2    -0.018721 -0.014904 -0.049560  0.000058 -0.020408  0.010768
  0N   1dxy       0.001005  0.014360  0.002911  0.010188 -0.029669  0.007726
  0N   2dz2       0.028047  0.107874 -0.140518 -0.013616 -0.037852  0.022773
  0N   2dxz       0.075155  0.132201 -0.063493 -0.063975 -0.121905 -0.198435
  0N   2dyz      -0.021175 -0.076816 -0.066447 -0.082470  0.062681  0.117051
  0N   2dx2y2    -0.058638  0.077490  0.146968 -0.111756 -0.013729  0.079163
  0N   2dxy       0.039598 -0.225604  0.005135  0.032629  0.234417 -0.105608
  0N   1f0       -0.002519 -0.006672  0.004863  0.005516  0.013660 -0.008321
  0N   1f+1      -0.001434 -0.014836  0.009928  0.000533  0.010529  0.004285
  0N   1f-1       0.000806  0.003038  0.004764 -0.003061  0.001027 -0.016031
  0N   1f+2       0.001593  0.002074 -0.003530  0.000536  0.016027  0.010757
  0N   1f-2       0.002106  0.011523 -0.001381  0.018519 -0.011860  0.001746
  0N   1f+3      -0.002999  0.012368  0.009728 -0.024429 -0.003433  0.000284
  0N   1f-3      -0.001565  0.011366  0.002509  0.003585  0.002693 -0.003478
  1C   1s         0.015441  0.001434  0.023386  0.014863 -0.004345  0.010866
  1C   2s         0.034566  0.002872  0.046635  0.040600 -0.010615  0.023328
  1C   3s        -0.247019 -0.027946 -0.347699  0.022721 -0.024540 -0.022284
  1C   4s        -4.481353 -0.392603 -7.458954 -2.993074  1.355593 -4.014014
  1C   5s        90.573760 -2.672495-50.157726-24.297160 12.929053-21.962319
  1C   1pz        0.032807  0.105455 -0.161817 -0.054409  0.048075  0.018382
  1C   1px       -0.070308 -0.005243 -0.128458  0.075914 -0.008442  0.016595
  1C   1py        0.018467 -0.197967 -0.083638 -0.039847  0.007294  0.000156
  1C   2pz        0.321449  1.041165 -0.900344 -0.494025 -0.438212 -0.647679
  1C   2px        0.101411 -0.137976 -2.530073 -0.146365  0.383190 -0.794921
  1C   2py        0.215345 -1.841529 -0.302336 -0.022441  1.200763 -0.446154
  1C   3pz       -0.360155 -2.412370  4.400008  0.415363 -3.230390 -4.944477
  1C   3px       -5.627000 -0.156485 -3.579800 -1.381587  0.573280 -2.715722
  1C   3py       -0.309456  4.724343  2.777915  1.591520  4.218712 -2.680716
  1C   1dz2       0.008136 -0.035287 -0.027731  0.009931 -0.107934  0.089510
  1C   1dxz       0.012078  0.026855 -0.016046 -0.028990 -0.054162 -0.079804
  1C   1dyz       0.004305  0.021834 -0.038507 -0.031833  0.078575  0.132163
  1C   1dx2y2     0.005886 -0.022025 -0.024551 -0.128393 -0.027238 -0.012913
  1C   1dxy       0.004467 -0.046049  0.006009  0.011130  0.107751 -0.045793
  1C   2dz2      -0.007227  0.142266  0.135387 -0.123471 -0.789155  0.510504
  1C   2dxz       0.050037  0.106986 -0.096538 -0.088094 -0.177040 -0.352930
  1C   2dyz      -0.023234 -0.096468 -0.056281 -0.086082  0.510502  0.697437
  1C   2dx2y2     0.031219  0.044953 -0.541069 -0.397186 -0.271772 -0.083412
  1C   2dxy       0.014053 -0.199508 -0.008429  0.033393  0.324602 -0.188447
  1C   1f0       -0.004438 -0.012653  0.001278 -0.007368 -0.015888 -0.017465
  1C   1f+1       0.014393 -0.021593  0.016132  0.050050 -0.018242  0.018710
  1C   1f-1       0.022355  0.007524  0.002868 -0.000580  0.010029 -0.003231
  1C   1f+2       0.006681  0.015808 -0.002565  0.006464  0.007760  0.025449
  1C   1f-2       0.003113  0.018497  0.017569  0.039985 -0.008210  0.010651
  1C   1f+3       0.016197  0.016877  0.002981  0.027278 -0.005552  0.010161
  1C   1f-3      -0.013031  0.033036  0.002951  0.004999  0.031619 -0.017310
  2H   1s        -0.004015  0.001142  0.000145  0.041832 -0.011151 -0.001778
  2H   2s         0.727024  1.280820  0.082180  0.364785 -1.366104  0.575268
  2H   3s       -27.889526 -8.906124  5.631757  3.135185 -9.870975  8.419995
  2H   1pz       -0.004607 -0.006493  0.045547  0.030242 -0.067770 -0.064378
  2H   1px       -0.006157  0.008717  0.019810  0.001732 -0.053576  0.052013
  2H   1py       -0.035339  0.016943  0.002487 -0.030893 -0.070041  0.049395
  3H   1s        -0.001621 -0.002179 -0.003279  0.036134 -0.006975 -0.006422
  3H   2s         0.771153 -1.286826  0.394947  0.797169  1.090956  0.379559
  3H   3s       -28.177358  9.589369  6.054195  6.416793  4.913852  8.842620
  3H   1pz       -0.038085 -0.008256  0.042432  0.030753  0.082329  0.015932
  3H   1px       -0.008796 -0.003637  0.029632  0.019873  0.043747  0.048866
  3H   1py        0.012161  0.019862  0.039669  0.048675  0.004828 -0.084712
  4H   1s        -0.005606  0.000906  0.011596 -0.025980  0.002411  0.043681
  4H   2s         1.068260 -0.005925 -0.712040 -0.314424  0.298619 -0.250230
  4H   3s       -30.257511  1.094630 20.223327  8.563918 -4.553095 -4.546108
  4H   1pz        0.022827 -0.007901 -0.026576 -0.051409 -0.034914  0.072411
  4H   1px        0.008301 -0.002908 -0.033373 -0.044840  0.015827 -0.069099
  4H   1py        0.009838  0.010782 -0.004756 -0.001531  0.095138  0.046614
  5H   1s        -0.002434  0.041994  0.064240 -0.023890  0.117529 -0.041803
  5H   2s        -0.276629  1.499666  0.863101 -1.459915  1.253619 -0.573093
  5H   3s        -3.790328  7.907307  7.852301 -1.039686 -1.883905  3.230428
  5H   1pz       -0.017354 -0.035024  0.014686  0.029195 -0.001650  0.032113
  5H   1px        0.014812 -0.118473 -0.065328  0.080237  0.064365 -0.055030
  5H   1py       -0.032598  0.025131  0.029023 -0.072056  0.022293 -0.017114
  6H   1s         0.004724 -0.035927  0.047457 -0.067272 -0.101381 -0.040887
  6H   2s        -0.201005 -1.379639  0.809697 -1.759908 -0.556995 -0.514044
  6H   3s        -3.912809 -7.125119  8.735368 -0.457900  0.333637  3.340899
  6H   1pz       -0.033397  0.001488  0.034212 -0.049901 -0.002712  0.003279
  6H   1px        0.015357  0.111349 -0.085189  0.044892 -0.077510 -0.059929
  6H   1py        0.000523  0.042421 -0.006407  0.058448 -0.014955  0.038180
                     24        25        26        27        28        29   
                   0.45777   0.51516   0.54685   0.66672   0.66787   0.70629
                   0.00000   0.00000   0.00000   0.00000   0.00000   0.00000
                  --------  --------  --------  --------  --------  --------
  0N   1s         0.001231  0.001006 -0.019870  0.009190  0.001546  0.017959
  0N   2s         0.002799  0.004734 -0.043081  0.022174  0.002900  0.054824
  0N   3s         0.005934  0.327268 -0.170247  0.033728  0.042359 -0.416924
  0N   4s         0.090192 -0.540692  4.707744 -6.588001 -1.281346 -1.908939
  0N   5s         0.234232-11.159803  3.415267 -3.850538 -0.776905 -3.033449
  0N   1pz        0.011355  0.034862  0.095717  0.170657 -0.080878 -0.000095
  0N   1px        0.007277  0.266241  0.003216 -0.037438 -0.004605 -0.095798
  0N   1py       -0.027643  0.024667  0.056718  0.034658  0.214156  0.027591
  0N   2pz       -0.196162  0.283833  0.119399  1.957922 -0.646246 -0.626565
  0N   2px       -0.002402  1.284777 -0.189118  0.556217  0.152329 -1.055703
  0N   2py        0.309130  0.160907  0.084107  0.553048  2.118709 -0.206122
  0N   3pz       -0.874243 -0.461555 -0.724173  1.213247 -0.742584 -0.017921
  0N   3px       -0.072874  2.563236 -0.546612  1.483552  0.267712  1.136330
  0N   3py        1.611671 -0.353481 -0.420690  0.195506  1.877752  0.087176
  0N   1dz2      -0.007055 -0.017065 -0.002271  0.011547 -0.021633  0.010503
  0N   1dxz       0.039221 -0.008927  0.057120  0.000308 -0.004351  0.034466
  0N   1dyz       0.005080 -0.005345  0.001305 -0.052246  0.002949  0.003257
  0N   1dx2y2    -0.003308  0.022603  0.003442 -0.062720 -0.026219 -0.017553
  0N   1dxy      -0.066425 -0.003642  0.032581 -0.001279  0.003120  0.021574
  0N   2dz2       0.180824  0.000885 -0.071098  0.024359 -0.063891  0.005891
  0N   2dxz       0.032520  0.001937  0.152649 -0.105985 -0.078806  0.551634
  0N   2dyz      -0.121229  0.014526 -0.201218 -0.294380 -0.021451 -0.075180
  0N   2dx2y2     0.109210 -0.017414 -0.107265 -0.325363 -0.103268 -0.128718
  0N   2dxy      -0.056525  0.008117  0.091931 -0.081616  0.002977  0.345442
  0N   1f0       -0.001712  0.010523  0.009746 -0.045049  0.022101  0.029596
  0N   1f+1      -0.031161 -0.016526 -0.004227 -0.022515  0.026916  0.001481
  0N   1f-1      -0.000299 -0.000314  0.003074  0.003935 -0.011401  0.018733
  0N   1f+2      -0.004152 -0.011368 -0.011627  0.049355  0.006155 -0.035426
  0N   1f-2       0.023436 -0.020634  0.000268  0.011292 -0.021375  0.009607
  0N   1f+3       0.023547 -0.003721 -0.006208 -0.019550 -0.028173 -0.013238
  0N   1f-3      -0.001309  0.008910  0.008421 -0.027578 -0.051029  0.020890
  1C   1s        -0.000253 -0.021591  0.000762 -0.009125  0.001275 -0.049368
  1C   2s        -0.000697 -0.053869  0.001933 -0.027396  0.003157 -0.133420
  1C   3s         0.014265  0.446395  0.150209  1.119596  0.151747  1.532650
  1C   4s        -0.114816  4.099633 -1.253690  5.502852  1.632827 -2.444250
  1C   5s        -0.425187 49.184175 -6.018267-12.332024 -4.284269 15.659967
  1C   1pz       -0.147150 -0.068798 -0.371916  0.130247  0.017213 -0.322631
  1C   1px        0.003744  0.145760 -0.018905 -0.257061 -0.038208 -0.316572
  1C   1py        0.249301 -0.049657 -0.216363  0.066093  0.085360 -0.204372
  1C   2pz       -1.356857 -0.889314 -2.769129  1.135327 -0.803249 -0.246499
  1C   2px       -0.046620  1.987566 -2.253235  3.327696  0.590484 -0.105549
  1C   2py        2.361420 -0.578853 -1.519891  0.038685  1.995851 -0.128508
  1C   3pz        1.295217  1.088042  0.856579 -0.775968  0.274324 -1.048672
  1C   3px       -0.157468 -1.992785  1.153275  0.993977  0.252831  0.118226
  1C   3py       -2.335801  0.826021  0.557330 -0.221990 -0.753891 -0.675343
  1C   1dz2       0.065604  0.082758 -0.049041  0.003271  0.051887  0.053349
  1C   1dxz      -0.062196 -0.018998 -0.094237 -0.166923  0.044918  0.120104
  1C   1dyz      -0.038470 -0.029520  0.003543  0.034897 -0.030771  0.086815
  1C   1dx2y2     0.027338 -0.184868  0.089496 -0.002496  0.027526  0.022279
  1C   1dxy       0.106497 -0.014380 -0.051822 -0.050835 -0.172528  0.059970
  1C   2dz2      -0.143892  0.422111  0.343595 -0.378817 -0.504979  0.571382
  1C   2dxz      -0.155748  0.018041 -0.092307 -1.916516  0.598128  1.258064
  1C   2dyz       0.127759  0.112116  0.756799 -0.298316  0.162137  0.829190
  1C   2dx2y2    -0.151217 -0.596269  0.243895  0.587578 -0.167483  0.052125
  1C   2dxy       0.263190  0.007186 -0.058370 -0.534881 -2.116631  0.634260
  1C   1f0       -0.007395  0.009840 -0.020698  0.033517 -0.008748 -0.061376
  1C   1f+1      -0.061113  0.036327 -0.008795  0.020349  0.067044  0.028777
  1C   1f-1       0.001019 -0.050475  0.028235  0.030244  0.014002  0.032749
  1C   1f+2       0.007684 -0.013482  0.027708 -0.042287  0.000669  0.080402
  1C   1f-2       0.048406 -0.025250  0.034968  0.065686 -0.029088 -0.008550
  1C   1f+3       0.051144  0.065993 -0.043922  0.001317 -0.046416  0.036702
  1C   1f-3       0.016327  0.024184 -0.028114  0.012275  0.044261 -0.070007
  2H   1s        -0.114167  0.067198  0.016719 -0.012047 -0.078014  0.043396
  2H   2s        -3.556624  1.020699  1.760479 -1.048099 -5.074095  1.843738
  2H   3s         4.674790-15.598367  0.371461  5.082761  2.146527 -3.227131
  2H   1pz        0.002052 -0.032806 -0.089802  0.020623  0.001112 -0.080565
  2H   1px       -0.106175 -0.069895  0.090125 -0.061897  0.090329 -0.047543
  2H   1py        0.084052 -0.064158 -0.000289  0.082232  0.097444 -0.003527
  3H   1s         0.118793  0.063406  0.021982 -0.045178  0.056664  0.051895
  3H   2s         3.542381  0.863716  1.903416 -3.061119  3.590214  1.856926
  3H   3s        -4.571453-15.074965  0.527607  5.332753  0.986720 -3.178910
  3H   1pz       -0.075711 -0.067983 -0.044091  0.108705 -0.032545 -0.045421
  3H   1px        0.104090 -0.074878  0.091940 -0.013803 -0.099789 -0.066550
  3H   1py        0.039172  0.005797 -0.077944 -0.038390  0.042401 -0.073746
  4H   1s         0.001603 -0.011580 -0.105570  0.042234  0.005363  0.091856
  4H   2s        -0.018851 -1.333160 -6.114339  3.612086  1.019082 -4.022648
  4H   3s        -0.011352-12.136063  5.254028  3.319876  1.105631 -4.005244
  4H   1pz        0.004847  0.005429 -0.128675  0.035039  0.011927 -0.148733
  4H   1px       -0.005346 -0.039777 -0.088144 -0.113981 -0.015124 -0.194235
  4H   1py       -0.008282  0.006935 -0.072220  0.020481  0.025003 -0.091381
  5H   1s         0.132859 -0.062209 -0.072739  0.040193  0.079246  0.049625
  5H   2s         2.134852 -0.188979 -1.900130  1.158734  2.345375  2.795843
  5H   3s         0.857188 -1.187925 -0.590292  0.340540  0.887817 -2.040824
  5H   1pz       -0.015415 -0.036652 -0.057817 -0.080097 -0.007805 -0.033585
  5H   1px       -0.032907 -0.039025  0.027726  0.024557  0.014664  0.084850
  5H   1py        0.037209 -0.035162 -0.028804  0.035936  0.037655  0.187710
  6H   1s        -0.136621 -0.056039 -0.079866  0.074133 -0.055885  0.039195
  6H   2s        -2.144307 -0.113282 -1.975751  2.154920 -1.782733  2.396456
  6H   3s        -0.653399 -1.140158 -0.586340  0.511675 -0.376019 -1.880778
  6H   1pz       -0.024230 -0.054980 -0.058175  0.011295 -0.046175  0.133023
  6H   1px        0.028012 -0.043585  0.026079  0.035943 -0.013767  0.080704
  6H   1py        0.034351 -0.017654 -0.035382 -0.094898 -0.002638 -0.118226
                     30        31        32        33        34        35   
                   0.73536   0.76409   0.85195   0.93459   0.98673   0.99754
                   0.00000   0.00000   0.00000   0.00000   0.00000   0.00000
                  --------  --------  --------  --------  --------  --------
  0N   1s        -0.011147 -0.000421 -0.011578  0.011153 -0.007348  0.000998
  0N   2s        -0.023215 -0.001056 -0.014487  0.023248 -0.029417  0.003303
  0N   3s         0.103387  0.004689 -0.713171 -0.323124  0.271241 -0.032446
  0N   4s        -4.807649 -0.007136  4.920649-10.192877-15.361403  1.291245
  0N   5s         3.855378  0.313333 12.272977 -8.523150-12.339808  1.092461
  0N   1pz       -0.005902 -0.120116 -0.069351  0.310529 -0.025025  0.116077
  0N   1px        0.038082  0.003513  0.044133 -0.018194  0.045396 -0.006732
  0N   1py       -0.007336  0.208055 -0.040544  0.185498 -0.038613 -0.170799
  0N   2pz       -0.345312 -0.075820  0.116042  1.755650 -0.804935  1.744044
  0N   2px        2.043137  0.061775 -1.629941  0.047279  3.681433 -0.366188
  0N   2py       -0.160467  0.202629  0.135844  1.130407 -0.809967 -2.664231
  0N   3pz       -0.613159  0.014690 -0.278096  2.579432 -1.671634  2.929282
  0N   3px        0.357672 -0.070162 -4.854548 -0.356887  7.927162 -0.827355
  0N   3py       -0.285569 -0.058870 -0.108712  1.677120 -1.573268 -4.404797
  0N   1dz2       0.061124  0.025181 -0.035772  0.004636  0.011216 -0.092459
  0N   1dxz      -0.019515 -0.019075  0.006866 -0.041515  0.003977 -0.026122
  0N   1dyz       0.040381 -0.016616 -0.017725  0.037262 -0.046020  0.065487
  0N   1dx2y2    -0.062334  0.013015  0.041073  0.043199 -0.101217 -0.042248
  0N   1dxy      -0.012355  0.029350  0.002544 -0.025291  0.007535  0.041170
  0N   2dz2       0.434042 -0.057783 -0.364987  0.017514 -0.023979 -0.694677
  0N   2dxz      -0.336226 -0.296800 -0.025350 -0.500247  0.280795 -0.630392
  0N   2dyz       0.288377  0.040926 -0.213093  0.365628 -0.424605  0.509815
  0N   2dx2y2    -0.405116 -0.045912  0.395865  0.417437 -0.665153 -0.340355
  0N   2dxy      -0.203819  0.443042 -0.034199 -0.332170  0.288585  0.973707
  0N   1f0       -0.032676 -0.013025 -0.010386 -0.016544  0.023096  0.015704
  0N   1f+1      -0.019971 -0.000438  0.029027  0.011956 -0.002801  0.080575
  0N   1f-1      -0.039765  0.010634 -0.003388 -0.010116  0.029387  0.003197
  0N   1f+2       0.041009  0.030142  0.012959  0.021115 -0.022942  0.033552
  0N   1f-2       0.011668 -0.000137  0.005760 -0.021102  0.010201 -0.060105
  0N   1f+3      -0.038043 -0.001020  0.031318  0.041224 -0.033677 -0.058329
  0N   1f-3      -0.022245  0.045274 -0.011947 -0.015269  0.014630  0.018788
  1C   1s        -0.010769  0.001128 -0.040880  0.021218  0.052751 -0.004743
  1C   2s        -0.038509  0.002867 -0.100937  0.059130  0.142422 -0.012894
  1C   3s         1.902580 -0.005411 -1.132652 -1.977125 -1.414842  0.107212
  1C   4s         1.498176 -0.262050-31.036538 -5.844924  9.182114 -1.191939
  1C   5s       -14.953375 -0.828023 16.770690  3.751640 58.263430 -6.086092
  1C   1pz        0.148794  0.304721  0.072416 -0.066440 -0.217861  0.183670
  1C   1px       -0.357742  0.001471  0.016332  0.202983  0.104990 -0.004479
  1C   1py        0.100738 -0.489633  0.051826 -0.026056 -0.162544 -0.264272
  1C   2pz       -3.221564  1.410582  1.098701 -6.788747  1.530101 -5.381728
  1C   2px        5.522354  0.146584  1.846172  4.937551 13.316237 -1.226271
  1C   2py       -1.756659 -2.609046  0.557469 -4.352809  2.024553  8.470588
  1C   3pz        1.012634  1.311068  0.241532  0.438371 -1.919997  2.145350
  1C   3px       -0.135521 -0.035469 -4.162702 -0.175793  2.132723 -0.232302
  1C   3py        0.624691 -2.124839  0.197946  0.331703 -1.491999 -3.235835
  1C   1dz2      -0.055280  0.098587 -0.052467  0.011757  0.012942  0.051209
  1C   1dxz      -0.009982 -0.057248 -0.049897 -0.023070  0.081369 -0.063547
  1C   1dyz      -0.059654 -0.073283 -0.023451  0.031067  0.058356 -0.039775
  1C   1dx2y2     0.024182  0.058439  0.059070  0.013507  0.061442  0.023940
  1C   1dxy      -0.010091  0.084605 -0.036397 -0.017741  0.058961  0.086661
  1C   2dz2      -0.900813  1.423840 -0.896912 -0.104406 -1.971393 -1.059131
  1C   2dxz       0.591901 -0.720617 -0.706021  0.314828  0.464447 -0.068611
  1C   2dyz       0.251371 -1.001125 -0.460177  1.438318  0.290865  0.844704
  1C   2dx2y2     1.745638  0.896415  1.015524  2.029096  3.357075 -1.017018
  1C   2dxy       0.272640  1.148926 -0.448044  0.186010  0.262669 -0.006185
  1C   1f0        0.023405  0.049967  0.009424  0.012983 -0.032847  0.046000
  1C   1f+1      -0.015708 -0.016844 -0.042411 -0.080619 -0.047501  0.103392
  1C   1f-1       0.087969 -0.029895  0.058308 -0.027290 -0.044333 -0.023781
  1C   1f+2      -0.028109 -0.060063 -0.014373 -0.016986  0.042471 -0.043217
  1C   1f-2      -0.037202  0.009857  0.033820 -0.056986  0.017796 -0.075476
  1C   1f+3       0.011017  0.010395 -0.084406 -0.045435 -0.109026 -0.068943
  1C   1f-3       0.003773 -0.118087  0.003662  0.023191 -0.032542 -0.089188
  2H   1s         0.050969 -0.039748  0.144400 -0.000497 -0.083565 -0.062087
  2H   2s         2.880275  6.985286  6.313781  9.949162  4.573857 -7.779029
  2H   3s         3.770397  1.167985 -7.366217 -2.837266-11.380732  7.867496
  2H   1pz        0.025395  0.089626  0.022441 -0.056696 -0.054062 -0.002906
  2H   1px       -0.062965  0.123852  0.098786  0.127534  0.196741  0.202241
  2H   1py        0.119304 -0.136471 -0.086809 -0.153731 -0.145692 -0.039038
  3H   1s         0.054709  0.041582  0.145679 -0.001733 -0.065554  0.074809
  3H   2s         3.279899 -6.807883  6.355729  9.327604  6.077389  7.210825
  3H   3s         3.794417 -0.823501 -7.257196 -2.578376-12.557842 -5.413238
  3H   1pz        0.113771  0.082023 -0.065031 -0.162478 -0.138882  0.056573
  3H   1px       -0.065522 -0.122185  0.107116  0.137622  0.154487 -0.225910
  3H   1py       -0.031204 -0.146161  0.068137  0.028775  0.025114 -0.017906
  4H   1s        -0.075109 -0.003177  0.149390  0.028650  0.045293 -0.003095
  4H   2s        -2.613271  0.204872 10.778874 -3.780442  5.530912 -0.582220
  4H   3s         5.725716  0.232639 -7.616046  1.669126-18.008984  1.909967
  4H   1pz       -0.081692  0.095344  0.152132  0.073884  0.004536 -0.008287
  4H   1px        0.034473  0.012425  0.133841  0.137870  0.000022  0.005502
  4H   1py       -0.039249 -0.153617  0.087586  0.045587  0.008085  0.021854
  5H   1s        -0.016531  0.032460 -0.038793  0.012618  0.022276  0.070662
  5H   2s        -2.661733  2.635879 -1.072562  5.295323 -2.071055 -3.273805
  5H   3s         0.616191 -3.257037  0.515894  2.117297 -7.390065 -4.872198
  5H   1pz        0.061090  0.024850 -0.025870  0.028571 -0.023331 -0.014081
  5H   1px        0.038479  0.012334  0.093886 -0.160894  0.126713  0.320129
  5H   1py       -0.102385  0.197458  0.074150  0.149531 -0.051716 -0.022562
  6H   1s        -0.021166 -0.035386 -0.041940  0.016467  0.006542 -0.073475
  6H   2s        -2.646474 -2.912062 -1.089200  5.114240 -1.355345  3.904836
  6H   3s         0.406467  3.407918  0.368539  1.793867 -6.305225  6.408032
  6H   1pz       -0.047892 -0.196414  0.056767  0.137682 -0.050826  0.046811
  6H   1px        0.038030 -0.014832  0.096282 -0.142406  0.065578 -0.344578
  6H   1py        0.103587  0.083973 -0.060922 -0.049981 -0.002339 -0.006836
                     36        37        38        39        40        41   
                   1.24164   1.25136   1.32098   1.35074   1.36233   1.56365
                   0.00000   0.00000   0.00000   0.00000   0.00000   0.00000
                  --------  --------  --------  --------  --------  --------
  0N   1s         0.002496 -0.035962  0.004062 -0.014871  0.001028  0.020192
  0N   2s         0.007276 -0.106512  0.012512 -0.043690  0.003196  0.069019
  0N   3s        -0.067900  1.002165 -0.193911  0.485613 -0.031976 -1.233340
  0N   4s        -1.772628 23.171216  2.681502  2.903728 -0.316766 18.717611
  0N   5s        -0.464350  9.361358-10.684575  5.685430  0.043890  7.304136
  0N   1pz        0.067303 -0.000550 -0.006352  0.175660  0.067919 -0.071671
  0N   1px        0.026749 -0.329770 -0.123364 -0.080762  0.013754  0.468785
  0N   1py       -0.114940 -0.014716 -0.008890  0.100122 -0.129535 -0.025977
  0N   2pz        0.249280  0.096720 -0.165214 -0.314009  0.135012  0.437001
  0N   2px        0.269625 -3.445714 -1.788714  0.769259  0.050205 -4.839129
  0N   2py       -0.381075  0.053883 -0.095275 -0.191611 -0.237520  0.266966
  0N   3pz        0.454563 -0.027711 -0.501971  0.956177  0.678499 -0.275500
  0N   3px        0.139407 -2.640494  2.199508 -1.136680  0.008046 -1.243964
  0N   3py       -0.720992 -0.087561 -0.323413  0.526164 -1.204899 -0.059185
  0N   1dz2       0.063395 -0.009625  0.043776  0.004598 -0.009844  0.002485
  0N   1dxz      -0.062689 -0.027861  0.051229 -0.055919 -0.046748 -0.032274
  0N   1dyz      -0.039689 -0.046298  0.047803  0.017843  0.005260 -0.014161
  0N   1dx2y2     0.038383 -0.022879 -0.015256  0.014896 -0.004254 -0.023890
  0N   1dxy       0.108369 -0.005100  0.036518 -0.029964  0.080897 -0.019471
  0N   2dz2       1.016234  0.245374  0.783134  0.640895 -0.674355  0.592697
  0N   2dxz      -0.728539 -0.352413  0.844061 -1.276686 -0.848530 -0.050987
  0N   2dyz      -0.707339 -0.629719  1.145219  1.018427  0.402180 -0.395957
  0N   2dx2y2     0.683068 -0.971519 -0.033479  0.054622 -0.360160 -1.522240
  0N   2dxy       1.262254 -0.058703  0.554499 -0.707358  1.485990 -0.073506
  0N   1f0       -0.049564 -0.020017  0.000918  0.005377  0.046989 -0.068734
  0N   1f+1      -0.003670 -0.001011 -0.025207  0.023937  0.055661 -0.034425
  0N   1f-1       0.011455  0.040935 -0.011693 -0.023833 -0.002132  0.039358
  0N   1f+2       0.003650  0.025437 -0.000354 -0.007165  0.028657  0.087121
  0N   1f-2       0.003728  0.004897 -0.034563  0.057166 -0.040303  0.045347
  0N   1f+3       0.004999 -0.008119 -0.002995 -0.021795 -0.044253 -0.084814
  0N   1f-3       0.056853 -0.025685  0.005000  0.010629 -0.008177 -0.078379
  1C   1s        -0.002561  0.022997  0.040692 -0.006628 -0.001079  0.001839
  1C   2s        -0.009137  0.086954  0.123723 -0.019897 -0.003532  0.006479
  1C   3s         0.058357 -0.475883 -1.834402  1.030721  0.043202  2.580763
  1C   4s         1.821368-22.728972 -9.886394 -2.120482  0.650744-10.170698
  1C   5s        -1.215897  5.735244 34.894078 -7.725247 -0.873069-22.124222
  1C   1pz        0.003849  0.037611 -0.015512 -0.450853 -0.221626 -0.029946
  1C   1px        0.011817 -0.147182 -0.044953 -0.048909  0.005403  0.278774
  1C   1py       -0.005280  0.031898  0.006751 -0.251167  0.398740 -0.004773
  1C   2pz       -7.067930 -6.602688  8.749042 10.037425  4.560325 -1.178705
  1C   2px        1.022158-13.646077 -1.288875 -0.497576  0.142789-14.343056
  1C   2py       12.409147 -2.948756  5.078437  5.678517 -8.456166 -0.939167
  1C   3pz        0.696947  0.644836 -0.451346 -2.006047 -0.817601 -0.193668
  1C   3px        0.201644 -2.890365  0.321083 -1.093327  0.082951  1.686738
  1C   3py       -1.292965  0.313582 -0.302316 -1.144659  1.484735 -0.239654
  1C   1dz2      -0.067297  0.022665 -0.048640 -0.022190  0.087430  0.072261
  1C   1dxz       0.005363  0.020313 -0.056284  0.020808 -0.008391 -0.049462
  1C   1dyz       0.042775  0.046052 -0.081267 -0.031886 -0.055373  0.013215
  1C   1dx2y2    -0.038731  0.001433 -0.016654 -0.000204  0.049550 -0.141674
  1C   1dxy      -0.016192  0.009571 -0.037866  0.009888  0.017771 -0.041624
  1C   2dz2      -3.100987  3.236483 -0.558938 -1.235651  2.506571  1.774783
  1C   2dxz       0.029562  0.549727 -0.574496 -3.463565 -1.645901 -0.347372
  1C   2dyz       1.937813  1.744271 -2.404702 -3.263324 -1.617396  0.338838
  1C   2dx2y2    -1.322236 -4.012490 -1.741587 -1.547202  1.563539 -2.359928
  1C   2dxy      -0.047218  0.374772 -0.227196 -1.925644  2.970944 -0.170407
  1C   1f0       -0.010449 -0.004507  0.028683  0.008316  0.007150  0.044246
  1C   1f+1      -0.082990  0.100418 -0.044450  0.008624  0.133578 -0.107485
  1C   1f-1       0.009831 -0.098141 -0.072820  0.013777 -0.013952  0.149368
  1C   1f+2      -0.001167 -0.000186 -0.034871 -0.007881 -0.046870 -0.056680
  1C   1f-2       0.055279  0.030415 -0.091894 -0.076507 -0.096164  0.039470
  1C   1f+3       0.049498  0.106863  0.027154  0.086599 -0.111443 -0.160987
  1C   1f-3       0.007366  0.026159  0.040828  0.004841 -0.075358 -0.005347
  2H   1s         0.182755 -0.053148  0.089464 -0.078497  0.072636  0.106704
  2H   2s       -14.033882  3.763778 -2.535149 -8.842066 13.397474 -3.250488
  2H   3s         3.145143 -4.120217 -7.994359  3.332271 -2.471227  7.361063
  2H   1pz       -0.079463 -0.027891  0.013676 -0.272986 -0.163044 -0.086330
  2H   1px       -0.323002 -0.054729 -0.139838 -0.013152  0.168353  0.357889
  2H   1py        0.104100 -0.312091 -0.117824  0.074024 -0.185035  0.454594
  3H   1s        -0.175348 -0.082373  0.068502 -0.086547 -0.071640  0.075800
  3H   2s        13.831335  5.107276 -2.639605 -9.123241-13.293771 -3.639604
  3H   3s        -2.172018 -4.323533 -8.114977  3.352339  2.963900  7.025741
  3H   1pz       -0.006824 -0.284988 -0.106866 -0.074477  0.260648  0.279798
  3H   1px        0.333720 -0.016839 -0.127815  0.003251 -0.152551  0.357471
  3H   1py        0.090296  0.153055  0.077963 -0.270374  0.042972 -0.295666
  4H   1s        -0.001717  0.072762 -0.207519  0.120603  0.001756  0.097749
  4H   2s         0.021681 -8.618377 15.422350 16.748275 -0.509699 -5.297729
  4H   3s         0.393393 -1.845334-10.931822 -2.500779  0.351334  6.695036
  4H   1pz       -0.048643  0.166778  0.258012  0.132344 -0.244637 -0.310191
  4H   1px        0.011875 -0.279192  0.349419 -0.023543 -0.006381  0.288362
  4H   1py        0.049636  0.106620  0.156419  0.084400  0.387863 -0.212917
  5H   1s        -0.130086  0.077291 -0.035230 -0.000227  0.054871  0.036379
  5H   2s         3.899341 -1.542849  3.852499 -2.036971  1.217110 -0.537888
  5H   3s        -2.128442  0.263190 -1.975632  0.582495 -1.047361 -0.269226
  5H   1pz       -0.062368 -0.070944  0.087149  0.362305  0.165995 -0.076465
  5H   1px       -0.061949  0.042355 -0.050453 -0.065868  0.083131  0.503642
  5H   1py        0.132038 -0.084538  0.065236 -0.075222  0.066067  0.407452
  6H   1s         0.121011  0.093677 -0.027372  0.002988 -0.053770  0.040851
  6H   2s        -3.738704 -2.166107  3.589577 -2.120640 -1.311864 -0.561597
  6H   3s         2.171296  0.551360 -1.840446  0.634548  1.073356 -0.382520
  6H   1pz       -0.075724 -0.135643  0.086542  0.114593 -0.144945  0.326419
  6H   1px        0.061517  0.051053 -0.033435 -0.067282 -0.075408  0.539874
  6H   1py        0.108108 -0.013734  0.041076  0.353999 -0.119886 -0.277438
                     42        43        44        45        46        47   
                   1.60960   1.61885   1.67467   1.76089   1.83674   1.85684
                   0.00000   0.00000   0.00000   0.00000   0.00000   0.00000
                  --------  --------  --------  --------  --------  --------
  0N   1s         0.012111  0.037955 -0.000019  0.066644  0.000146 -0.003896
  0N   2s         0.036718  0.114610 -0.000334  0.221405  0.001382 -0.022170
  0N   3s        -0.377494 -1.137210  0.017080 -2.397718 -0.041745  0.610760
  0N   4s         2.353578  5.297118  0.214290  7.632617 -0.395461  2.262912
  0N   5s        -0.351513 -1.682161  0.189224 -5.089001 -0.503802  4.448307
  0N   1pz        0.162064  0.031055  0.126195 -0.345758 -0.218503  0.308212
  0N   1px       -0.034115 -0.164064  0.011102 -0.339733 -0.023539  0.216353
  0N   1py       -0.231490  0.120524 -0.217610 -0.207355  0.312775  0.216728
  0N   2pz        0.368644  0.223527 -1.189390  1.295978  2.591793 -3.903201
  0N   2px       -0.198998  0.136148 -0.071155  0.741482  0.067199  0.103163
  0N   2py       -0.288093  0.307888  1.972162  0.797834 -3.688300 -2.666701
  0N   3pz        1.094361  0.928423  0.232886 -0.358388  0.307689 -0.088215
  0N   3px       -0.356850 -1.027396 -0.034561 -0.331160  0.088474 -0.594113
  0N   3py       -1.031010  1.073592 -0.409510 -0.207240 -0.495700 -0.104998
  0N   1dz2       0.017618 -0.035812  0.002123  0.028804 -0.023527 -0.033409
  0N   1dxz       0.007131 -0.019142  0.007132 -0.060298 -0.022933  0.052378
  0N   1dyz      -0.034343 -0.049564 -0.000332 -0.001927  0.020755 -0.034833
  0N   1dx2y2     0.008887 -0.024152  0.001543 -0.048249 -0.014391  0.013433
  0N   1dxy      -0.026272 -0.002006 -0.011942 -0.033912  0.027383  0.033760
  0N   2dz2       0.544037 -0.678398 -0.312521 -0.172211  0.511473  0.395643
  0N   2dxz      -0.586995 -0.486726  0.031357 -0.144697 -0.787262  1.747745
  0N   2dyz      -0.642466 -0.469374  0.234873 -0.242975 -0.402916  0.577094
  0N   2dx2y2     0.354261 -0.044025 -0.197122  0.015062  0.287051  0.094852
  0N   2dxy       0.556112 -0.563768 -0.023348 -0.104569  1.046284  1.100938
  0N   1f0       -0.062194 -0.032630  0.069413  0.034540 -0.119250  0.077971
  0N   1f+1       0.045707  0.019713 -0.024557 -0.006518  0.006562  0.028442
  0N   1f-1       0.015578 -0.002857 -0.005585 -0.000842  0.055419 -0.006564
  0N   1f+2       0.033972  0.060241  0.034674 -0.045836  0.084568 -0.102003
  0N   1f-2      -0.023123  0.013300  0.019160 -0.043798 -0.015806  0.115856
  0N   1f+3      -0.019778  0.042105  0.017356  0.030097 -0.000288 -0.071696
  0N   1f-3       0.036823 -0.064488 -0.022019  0.034391  0.205918  0.102348
  1C   1s         0.002542  0.007264 -0.000377  0.020236  0.000563 -0.006846
  1C   2s         0.004965  0.010946 -0.000770  0.033746  0.001054 -0.013334
  1C   3s        -0.109021 -0.587137  0.039309 -0.247725 -0.007794  0.975904
  1C   4s        -1.225756 -2.052300 -0.200848  0.058485  0.490003 -2.915250
  1C   5s        -0.919171 -1.504657 -0.372151  6.051692  0.395977 -3.841514
  1C   1pz        0.161111  0.156272  0.092556 -0.033030 -0.081274  0.251081
  1C   1px       -0.011034 -0.070581  0.001944 -0.141963  0.003249  0.043869
  1C   1py       -0.148064  0.165852 -0.157842 -0.024851  0.091092  0.152314
  1C   2pz       -4.652398 -4.193537 -0.214206 -0.538880 -4.388383  4.817376
  1C   2px       -1.052785 -1.532374 -0.198509 -0.956351  0.218572 -1.524028
  1C   2py        4.304218 -4.696225  0.630002 -0.332780  6.766294  3.479652
  1C   3pz       -2.065048 -1.890027 -0.443290  1.523889  0.351874 -1.020782
  1C   3px       -0.090319 -0.443105  0.013605  0.359857  0.028015 -0.169599
  1C   3py        1.803166 -2.013016  0.720844  0.923239 -0.437790 -0.633677
  1C   1dz2       0.193596 -0.199572  0.067463 -0.008546  0.082251  0.132452
  1C   1dxz      -0.210772 -0.177883 -0.003179  0.196811 -0.227852  0.327073
  1C   1dyz      -0.225763 -0.172935 -0.042292  0.139652 -0.068905  0.098796
  1C   1dx2y2     0.111146 -0.083200  0.033262  0.182401  0.061596 -0.091456
  1C   1dxy       0.184843 -0.199989  0.013558  0.113135  0.335723  0.224359
  1C   2dz2      -2.145299  2.375028 -0.563683 -0.244868 -1.712202 -0.361749
  1C   2dxz       0.761463  0.598850  0.486174 -1.167499 -0.079361  0.282926
  1C   2dyz       2.710789  2.260057  0.352644 -0.481182  1.204827 -0.702393
  1C   2dx2y2    -1.455816  1.177848 -0.372102 -0.174781 -0.944528 -0.597145
  1C   2dxy      -0.809078  0.723137 -0.858976 -0.699472  0.032379  0.174082
  1C   1f0       -0.046454 -0.032372 -0.130600  0.064104  0.182126 -0.315788
  1C   1f+1       0.059387 -0.138130  0.094221 -0.086459  0.008636  0.063622
  1C   1f-1       0.048124 -0.023183  0.029163 -0.014768 -0.102730  0.010743
  1C   1f+2       0.100130  0.020728 -0.023350 -0.082278 -0.201356  0.403355
  1C   1f-2      -0.125832 -0.137075 -0.074487  0.019781 -0.021858  0.149472
  1C   1f+3      -0.077501  0.019678 -0.072399 -0.137093 -0.005007 -0.060663
  1C   1f-3       0.144897 -0.086680  0.091241  0.068057 -0.355215 -0.350769
  2H   1s        -0.295198  0.294038 -0.156119 -0.132770 -0.082083  0.045626
  2H   2s        -4.958716  5.153933 -1.746327 -0.331861 -5.679174 -2.324343
  2H   3s        -2.977649  3.576035 -1.163145 -3.189955  0.535459  1.647314
  2H   1pz       -0.726784 -0.454875  0.473303 -0.061110  0.058493  0.039462
  2H   1px        0.110520  0.028007  0.066650  0.337940  0.820731  0.799309
  2H   1py       -0.566142  0.587959 -0.120404 -0.090939 -0.182616  0.026998
  3H   1s         0.425913  0.069804  0.164368 -0.126233  0.072965  0.058904
  3H   2s         6.736252  1.362843  1.513194 -0.279746  5.867783 -1.440077
  3H   3s         4.885274  1.148742  1.421192 -3.084533 -0.800488  1.546919
  3H   1pz        0.887150 -0.268552 -0.122028 -0.104553  0.124975  0.075389
  3H   1px       -0.081402  0.065260 -0.049572  0.343183 -0.939581  0.671489
  3H   1py       -0.144723 -0.740620 -0.477070  0.002606 -0.157533  0.025664
  4H   1s        -0.112303 -0.354990 -0.000046  0.305611 -0.001354  0.051935
  4H   2s        -2.111608 -6.564201  0.085848 -0.412645 -0.188636  2.845889
  4H   3s        -1.362081 -4.493138  0.066572  1.475388  0.016956 -0.486491
  4H   1pz        0.038183  0.665149 -0.338350 -0.429228 -0.197905 -0.173753
  4H   1px        0.035301  0.051105  0.001878 -0.312046  0.093997 -1.350065
  4H   1py        0.385038  0.266454  0.577734 -0.239684  0.366056 -0.073738
  5H   1s         0.102107 -0.097338 -0.000473 -0.065311 -0.088161  0.045256
  5H   2s        -0.452483 -0.462215  0.781372 -1.536971 -1.584649 -1.362829
  5H   3s        -0.269059  1.561595 -0.582743  0.891318 -0.131485 -0.343517
  5H   1pz       -0.299454  0.050990  0.838355 -0.360574  0.023008  0.232123
  5H   1px        0.334917 -0.326125  0.154005 -0.105914 -0.374419 -0.134429
  5H   1py       -0.037275 -0.149163  0.237452 -0.100655 -0.470089 -0.300346
  6H   1s        -0.134550 -0.024169  0.008552 -0.066120  0.076369  0.063436
  6H   2s         0.238453 -0.669276 -0.788121 -1.554001  1.828365 -1.067777
  6H   3s         1.053480  1.107459  0.567275  0.875607  0.180666 -0.325339
  6H   1pz        0.107946 -0.208450 -0.621987 -0.279776  0.416254 -0.082716
  6H   1px       -0.419984 -0.090501 -0.145549 -0.108552  0.390645 -0.056237
  6H   1py        0.240052 -0.043591 -0.596930 -0.253270 -0.316403  0.311232
                     48        49        50        51        52        53   
                   1.90333   1.91984   2.04733   2.12123   2.19709   2.32818
                   0.00000   0.00000   0.00000   0.00000   0.00000   0.00000
                  --------  --------  --------  --------  --------  --------
[...]
The origin for moment calculation is the CENTER OF MASS  = ( 0.177844,  0.051107  0.088077)

-------------
DIPOLE MOMENT
-------------
                                X             Y             Z
Electronic contribution:      0.56067      -0.06525      -0.12225
Nuclear contribution   :     -0.60752      -0.19188      -0.33064
                        -----------------------------------------
Total Dipole Moment    :     -0.04685      -0.25712      -0.45289
                        -----------------------------------------
Magnitude (a.u.)       :      0.52290
Magnitude (Debye)      :      1.32909



--------------------
Rotational spectrum 
--------------------
 
Rotational constants in cm-1:    12.394678     2.713928     2.606025 
Rotational constants in MHz : 371583.092357 81361.526129 78126.671856 

 Dipole components along the rotational axes: 
x,y,z [a.u.] :    -0.027424    -0.005123    -0.522150 
x,y,z [Debye]:    -0.069707    -0.013023    -1.327200 

 

                        *** CIS RELAXED DENSITY ***

------------------------------------------------------------------------------
                       ORCA ELECTRIC PROPERTIES CALCULATION
------------------------------------------------------------------------------

Dipole Moment Calculation                       ... on
Quadrupole Moment Calculation                   ... off
Polarizability Calculation                      ... off
GBWName                                         ... tddft.gbw
Electron density file                           ... tddft.cisp
The origin for moment calculation is the CENTER OF MASS  = ( 0.177844,  0.051107  0.088077)

-------------
DIPOLE MOMENT
-------------
                                X             Y             Z
Electronic contribution:     -0.31628       0.77703       0.85859
Nuclear contribution   :     -0.60752      -0.19188      -0.33064
                        -----------------------------------------
Total Dipole Moment    :     -0.92380       0.58515       0.52794
                        -----------------------------------------
Magnitude (a.u.)       :      1.21431
Magnitude (Debye)      :      3.08652



--------------------
Rotational spectrum 
--------------------
 
Rotational constants in cm-1:    12.394678     2.713928     2.606025 
Rotational constants in MHz : 371583.092357 81361.526129 78126.671856 

 Dipole components along the rotational axes: 
x,y,z [a.u.] :    -0.951062    -0.241026     0.715490 
x,y,z [Debye]:    -2.417408    -0.612640     1.818631 

 

----------------------------------------------------------------------------
                           ORCA NUMERICAL FREQUENCIES
                              (16-process run)
----------------------------------------------------------------------------

Number of atoms                ... 7
Central differences            ... used
Number of displacements        ... 42
Numerical increment            ... 5.000e-03 bohr
IR-spectrum generation         ... on
Raman-spectrum generation      ... off
Surface Crossing Hessian       ... off

The output will be reduced. Please look at the following files:
SCF program output             ... >tddft.lastscf
Integral program output        ... >tddft.lastint
Gradient program output        ... >tddft.lastgrad
Dipole moment program output   ... >tddft.lastmom
AutoCI program output          ... >tddft.lastautoci


         <<< Energy and Gradient at the input geometry >>>

        <<< Energy and Gradient at displaced geometries >>>
             <<<Displacing   4/coordinate 2 (+)>>>
             <<<Displacing   5/coordinate 2 (+)>>>
             <<<Displacing   2/coordinate 2 (+)>>>
             <<<Displacing   3/coordinate 3 (+)>>>
             <<<Displacing   2/coordinate 3 (+)>>>
             <<<Displacing   2/coordinate 1 (+)>>>
             <<<Displacing   5/coordinate 3 (+)>>>
             <<<Displacing   5/coordinate 1 (+)>>>
             <<<Displacing   1/coordinate 1 (+)>>>
             <<<Displacing   1/coordinate 2 (+)>>>
             <<<Displacing   6/coordinate 1 (+)>>>
             <<<Displacing   4/coordinate 3 (+)>>>
             <<<Displacing   1/coordinate 3 (+)>>>
             <<<Displacing   3/coordinate 1 (+)>>>
             <<<Displacing   3/coordinate 2 (+)>>>
             <<<Displacing   4/coordinate 1 (+)>>>
             <<<Displacing   4/coordinate 3 (-)>>>
             <<<Displacing   5/coordinate 2 (-)>>>
             <<<Displacing   1/coordinate 2 (-)>>>
             <<<Displacing   3/coordinate 1 (-)>>>
             <<<Displacing   5/coordinate 3 (-)>>>
             <<<Displacing   1/coordinate 3 (-)>>>
             <<<Displacing   3/coordinate 3 (-)>>>
             <<<Displacing   2/coordinate 1 (-)>>>
             <<<Displacing   6/coordinate 1 (-)>>>
             <<<Displacing   4/coordinate 1 (-)>>>
             <<<Displacing   1/coordinate 1 (-)>>>
             <<<Displacing   3/coordinate 2 (-)>>>
             <<<Displacing   2/coordinate 2 (-)>>>
             <<<Displacing   2/coordinate 3 (-)>>>
             <<<Displacing   5/coordinate 1 (-)>>>
             <<<Displacing   4/coordinate 2 (-)>>>
             <<<Displacing   6/coordinate 2 (+)>>>
             <<<Displacing   6/coordinate 3 (+)>>>
             <<<Displacing   7/coordinate 1 (+)>>>
             <<<Displacing   7/coordinate 2 (+)>>>
             <<<Displacing   7/coordinate 3 (+)>>>
             <<<Displacing   6/coordinate 2 (-)>>>
             <<<Displacing   6/coordinate 3 (-)>>>
             <<<Displacing   7/coordinate 1 (-)>>>
             <<<Displacing   7/coordinate 2 (-)>>>
             <<<Displacing   7/coordinate 3 (-)>>>

-----------------------
VIBRATIONAL FREQUENCIES
-----------------------

Scaling factor for frequencies =  1.000000000 (already applied!)

   0:         0.00 cm**-1
   1:         0.00 cm**-1
   2:         0.00 cm**-1
   3:         0.00 cm**-1
   4:         0.00 cm**-1
   5:         0.00 cm**-1
   6:     -7611.32 cm**-1 ***imaginary mode***
   7:     -7584.66 cm**-1 ***imaginary mode***
   8:     -7307.13 cm**-1 ***imaginary mode***
   9:     -7254.57 cm**-1 ***imaginary mode***
  10:     -6436.47 cm**-1 ***imaginary mode***
  11:     -6208.06 cm**-1 ***imaginary mode***
  12:     -6025.02 cm**-1 ***imaginary mode***
  13:     -5750.53 cm**-1 ***imaginary mode***
  14:     -5451.80 cm**-1 ***imaginary mode***
  15:      6812.31 cm**-1
  16:     12773.57 cm**-1
  17:     13336.85 cm**-1
  18:     13407.11 cm**-1
  19:     15855.63 cm**-1
  20:     16133.76 cm**-1


------------
NORMAL MODES
------------

These modes are the cartesian displacements weighted by the diagonal matrix
M(i,i)=1/sqrt(m[i]) where m[i] is the mass of the displaced atom
Thus, these vectors are normalized but *not* orthogonal

                  0          1          2          3          4          5    
      0       0.000000   0.000000   0.000000   0.000000   0.000000   0.000000
      1       0.000000   0.000000   0.000000   0.000000   0.000000   0.000000
      2       0.000000   0.000000   0.000000   0.000000   0.000000   0.000000
      3       0.000000   0.000000   0.000000   0.000000   0.000000   0.000000
      4       0.000000   0.000000   0.000000   0.000000   0.000000   0.000000
      5       0.000000   0.000000   0.000000   0.000000   0.000000   0.000000
      6       0.000000   0.000000   0.000000   0.000000   0.000000   0.000000
      7       0.000000   0.000000   0.000000   0.000000   0.000000   0.000000
      8       0.000000   0.000000   0.000000   0.000000   0.000000   0.000000
      9       0.000000   0.000000   0.000000   0.000000   0.000000   0.000000
     10       0.000000   0.000000   0.000000   0.000000   0.000000   0.000000
     11       0.000000   0.000000   0.000000   0.000000   0.000000   0.000000
     12       0.000000   0.000000   0.000000   0.000000   0.000000   0.000000
     13       0.000000   0.000000   0.000000   0.000000   0.000000   0.000000
     14       0.000000   0.000000   0.000000   0.000000   0.000000   0.000000
     15       0.000000   0.000000   0.000000   0.000000   0.000000   0.000000
     16       0.000000   0.000000   0.000000   0.000000   0.000000   0.000000
     17       0.000000   0.000000   0.000000   0.000000   0.000000   0.000000
     18       0.000000   0.000000   0.000000   0.000000   0.000000   0.000000
     19       0.000000   0.000000   0.000000   0.000000   0.000000   0.000000
     20       0.000000   0.000000   0.000000   0.000000   0.000000   0.000000
                  6          7          8          9         10         11    
      0      -0.055349   0.021834  -0.021955  -0.050619   0.001738   0.016410
      1      -0.066979  -0.007638   0.056442   0.002134  -0.036124   0.000312
      2      -0.078292   0.046422  -0.024772   0.048476   0.020641  -0.004836
      3      -0.012778   0.005151  -0.006705  -0.020207   0.008849   0.076196
      4       0.031973   0.008114   0.003314  -0.008453   0.122388   0.018988
      5       0.038304  -0.027652   0.002850  -0.015901  -0.055002   0.067286
      6       0.048722  -0.058888  -0.151291   0.122252  -0.108789  -0.470559
      7       0.042282  -0.017040  -0.063500   0.049072   0.047937  -0.176005
      8      -0.222382  -0.202825   0.174991   0.041585   0.335891  -0.426616
      9       0.057455   0.019812   0.185334   0.004651   0.004922  -0.491252
     10       0.006101   0.259761  -0.197373   0.154669  -0.390159  -0.172637
     11       0.041212   0.136502  -0.020254   0.086646  -0.320934  -0.287980
     12      -0.017633   0.005006  -0.006773  -0.026496  -0.035931  -0.307567
     13      -0.136108  -0.387762  -0.111441   0.028867  -0.592105   0.201348
     14       0.110259   0.211022   0.071680  -0.013071   0.380399   0.159716
     15       0.403292  -0.311022  -0.386527   0.618797   0.205926   0.063335
     16       0.144064  -0.145660  -0.101778   0.254260   0.048546   0.010586
     17       0.217117  -0.651909  -0.018654  -0.513511   0.067196  -0.144181
     18       0.429550  -0.019697   0.744234   0.224966  -0.195713   0.070085
     19       0.493414   0.300157  -0.349705  -0.415798  -0.070583  -0.093879
     20       0.485297   0.191632   0.102498  -0.085795  -0.093992  -0.035496
                 12         13         14         15         16         17    
      0      -0.004485  -0.002388  -0.000125  -0.428330  -0.009883   0.000239
      1      -0.005813  -0.025087   0.052650   0.001745   0.000410   0.001239
      2      -0.010420  -0.042173  -0.030999   0.002568   0.000345  -0.000918
      3      -0.060861   0.015074   0.001404   0.471556   0.062985  -0.000046
      4       0.051781   0.020484  -0.062554  -0.002028  -0.001030   0.078264
      5       0.101336   0.028070   0.035217  -0.002397  -0.001708  -0.045538
      6       0.131381  -0.412789   0.636656   0.298467  -0.192583   0.249791
      7       0.117754  -0.141175   0.176552  -0.117823   0.551516  -0.654492
      8      -0.471527   0.371320   0.113896  -0.038310  -0.002051  -0.019708
      9       0.096419  -0.400642  -0.648251   0.295736  -0.191169  -0.252425
     10      -0.421692   0.368499   0.002306   0.032686  -0.277699  -0.313798
     11      -0.114538   0.049831  -0.210310  -0.113885   0.472506   0.581327
     12       0.651538   0.558398  -0.008114   0.378207  -0.224640   0.000515
     13      -0.084658  -0.127301  -0.192346   0.089686  -0.258970   0.019183
     14      -0.189985  -0.187071   0.114112   0.144535  -0.447361  -0.009248
     15      -0.033633   0.054083  -0.112353  -0.315041  -0.001407   0.003390
     16      -0.038022   0.001875   0.006161   0.062277  -0.003185   0.002791
     17      -0.179767   0.015446  -0.014591  -0.041497  -0.005529   0.004698
     18      -0.058185   0.054514   0.117073  -0.324267  -0.003375  -0.004048
     19      -0.109615   0.002626   0.021080  -0.066908  -0.005081  -0.003467
     20      -0.106870   0.002029   0.008022   0.042034  -0.001997  -0.001692
                  18         19         20    
      0       0.005669   0.038922   0.008911
      1      -0.004403  -0.005425  -0.071895
      2      -0.004748  -0.045514   0.030521
      3      -0.010225  -0.002341   0.000436
      4      -0.045808   0.001893   0.000910
      5      -0.078812   0.003424   0.003520
      6      -0.145961   0.004174   0.003233
      7       0.376532  -0.009949  -0.010624
      8       0.000644  -0.006127  -0.005098
      9      -0.143766   0.004756   0.002813
     10      -0.187601   0.003234  -0.001559
     11       0.320417  -0.013927  -0.008919
     12       0.341864  -0.010339  -0.008159
     13       0.369672  -0.017780  -0.011372
     14       0.642872  -0.032412  -0.022881
     15      -0.011180  -0.193321  -0.323639
     16       0.045486   0.487440   0.787034
     17       0.016407  -0.026235  -0.005539
     18       0.002108  -0.318222   0.196731
     19       0.002919  -0.410119   0.224713
     20       0.024738   0.670364  -0.423620


-----------
IR SPECTRUM  
-----------

 Mode    freq (cm**-1)   T**2         TX         TY         TZ
-------------------------------------------------------------------
  15:      6812.31   33.207137  (  4.990681   1.579836   2.409225)
  16:     12773.57  504.150684  ( 21.206683   3.557086   6.463312)
  17:     13336.85    3.279677  (  0.038075  -1.721720   0.560275)
  18:     13407.11  138.516350  ( -3.083419  -5.525138  -9.923796)
  19:     15855.63   28.500945  (  3.703490   0.084028   3.844222)
  20:     16133.76   67.641044  (  0.643781   7.515726  -3.277263)

The first frequency considered to be a vibration is 15
The total number of vibrations considered is 6


--------------------------
THERMOCHEMISTRY AT 298.15K
--------------------------

Temperature         ... 298.15 K
Pressure            ... 1.00 atm
Total Mass          ... 31.06 AMU

Throughout the following assumptions are being made:
  (1) The electronic state is orbitally nondegenerate
  (2) There are no thermally accessible electronically excited states
  (3) Hindered rotations indicated by low frequency modes are not
      treated as such but are treated as vibrations and this may
      cause some error
  (4) All equations used are the standard statistical mechanics
      equations for an ideal gas
  (5) All vibrations are strictly harmonic

freq.    6812.31  E(vib)   ...       0.00 
freq.   12773.57  E(vib)   ...       0.00 
freq.   13336.85  E(vib)   ...       0.00 
freq.   13407.11  E(vib)   ...       0.00 
freq.   15855.63  E(vib)   ...       0.00 
freq.   16133.76  E(vib)   ...       0.00 

------------
INNER ENERGY
------------

The inner energy is: U= E(el) + E(ZPE) + E(vib) + E(rot) + E(trans)
    E(el)   - is the total energy from the electronic structure calculation
              = E(kin-el) + E(nuc-el) + E(el-el) + E(nuc-nuc)
    E(ZPE)  - the the zero temperature vibrational energy from the frequency calculation
    E(vib)  - the the finite temperature correction to E(ZPE) due to population
              of excited vibrational states
    E(rot)  - is the rotational thermal energy
    E(trans)- is the translational thermal energy

Summary of contributions to the inner energy U:
Electronic energy                ...    -91.34348648 Eh
Zero point energy                ...      0.17842438 Eh     111.96 kcal/mol
Thermal vibrational correction   ...      0.00000000 Eh       0.00 kcal/mol
Thermal rotational correction    ...      0.00141627 Eh       0.89 kcal/mol
Thermal translational correction ...      0.00141627 Eh       0.89 kcal/mol
-----------------------------------------------------------------------
Total thermal energy                    -91.16222956 Eh


Summary of corrections to the electronic energy:
(perhaps to be used in another calculation)
Total thermal correction                  0.00283254 Eh       1.78 kcal/mol
Non-thermal (ZPE) correction              0.17842438 Eh     111.96 kcal/mol
-----------------------------------------------------------------------
Total correction                          0.18125692 Eh     113.74 kcal/mol


--------
ENTHALPY
--------

The enthalpy is H = U + kB*T
                kB is Boltzmann's constant
Total free energy                 ...    -91.16222956 Eh 
Thermal Enthalpy correction       ...      0.00094421 Eh       0.59 kcal/mol
-----------------------------------------------------------------------
Total Enthalpy                    ...    -91.16128535 Eh


Note: Only C1 symmetry has been detected, increase convergence thresholds 
      if your molecule has a higher symmetry. Symmetry factor of 1.0 is   
      used for the rotational entropy correction. 
 

Note: Rotational entropy computed according to Herzberg 
Infrared and Raman Spectra, Chapter V,1, Van Nostrand Reinhold, 1945 
Point Group:  C1, Symmetry Number:   1  
Rotational constants in cm-1:    12.394678     2.713928     2.606025 

Vibrational entropy computed according to the QRRHO of S. Grimme
Chem.Eur.J. 2012 18 9955


-------
ENTROPY
-------

The entropy contributions are T*S = T*(S(el)+S(vib)+S(rot)+S(trans))
     S(el)   - electronic entropy
     S(vib)  - vibrational entropy
     S(rot)  - rotational entropy
     S(trans)- translational entropy
The entropies will be listed as mutliplied by the temperature to get
units of energy

Electronic entropy                ...      0.00000000 Eh      0.00 kcal/mol
Vibrational entropy               ...     -0.00000000 Eh     -0.00 kcal/mol
Rotational entropy                ...      0.00739892 Eh      4.64 kcal/mol
Translational entropy             ...      0.01721518 Eh     10.80 kcal/mol
-----------------------------------------------------------------------
Final entropy term                ...      0.02461409 Eh     15.45 kcal/mol

In case the symmetry of your molecule has not been determined correctly
or in case you have a reason to use a different symmetry number we print 
out the resulting rotational entropy values for sn=1,12 :
 --------------------------------------------------------
|  sn= 1 | S(rot)=       0.00739892 Eh      4.64 kcal/mol|
|  sn= 2 | S(rot)=       0.00674446 Eh      4.23 kcal/mol|
|  sn= 3 | S(rot)=       0.00636163 Eh      3.99 kcal/mol|
|  sn= 4 | S(rot)=       0.00609001 Eh      3.82 kcal/mol|
|  sn= 5 | S(rot)=       0.00587932 Eh      3.69 kcal/mol|
|  sn= 6 | S(rot)=       0.00570717 Eh      3.58 kcal/mol|
|  sn= 7 | S(rot)=       0.00556163 Eh      3.49 kcal/mol|
|  sn= 8 | S(rot)=       0.00543555 Eh      3.41 kcal/mol|
|  sn= 9 | S(rot)=       0.00532434 Eh      3.34 kcal/mol|
|  sn=10 | S(rot)=       0.00522486 Eh      3.28 kcal/mol|
|  sn=11 | S(rot)=       0.00513487 Eh      3.22 kcal/mol|
|  sn=12 | S(rot)=       0.00505272 Eh      3.17 kcal/mol|
 --------------------------------------------------------


-------------------
GIBBS FREE ENERGY
-------------------

The Gibbs free energy is G = H - T*S

Total enthalpy                    ...    -91.16128535 Eh 
Total entropy correction          ...     -0.02461409 Eh    -15.45 kcal/mol
-----------------------------------------------------------------------
Final Gibbs free energy         ...    -91.18589944 Eh

For completeness - the Gibbs free energy minus the electronic energy
G-E(el)                           ...      0.15758703 Eh     98.89 kcal/mol


Total Time for Numerical Frequencies  :      2510.437 sec
Time for Reference State(s)           :       144.295 sec
Time for Displacements                :      2363.633 sec

Timings for individual modules:

Sum of individual times         ...      311.046 sec (=   5.184 min)
GTO integral calculation        ...        3.666 sec (=   0.061 min)   1.2 %
SCF iterations                  ...       29.086 sec (=   0.485 min)   9.4 %
CIS module                      ...      201.528 sec (=   3.359 min)  64.8 %
SCF Gradient evaluation         ...       73.427 sec (=   1.224 min)  23.6 %
Orbital/Density plot generation ...        3.340 sec (=   0.056 min)   1.1 %
                             ****ORCA TERMINATED NORMALLY****
TOTAL RUN TIME: 0 days 0 hours 44 minutes 55 seconds 302 msec
