                  Welcome to Q-Chem
     A Quantum Leap Into The Future Of Chemistry

 Y. Shao, L. Fusti-Molnar, Y. Jung, J. Kussmann, C. Ochsenfeld,
 S. T. Brown, A. T. B. Gilbert, L. V. Slipchenko,S. V. Levchenko,
 D. P. O'Neill, R. A. DiStasio Jr., R. C. Lochan, T. Wang,
 G. J. O. Beran, N. A. Besley, J. M. Herbert, C. Y. Lin,
 T. Van Voorhis, S. H. Chien, A. Sodt, R. P. Steele, 
 V. A. Rassolov, P. E. Maslen, P. P. Korambath, R. D. Adamson,
 B. Austin, J. Baker, E. F. C. Byrd, H. Dachsel, R. J. Doerksen,
 A. Dreuw, B. D. Dunietz, A. D. Dutoi, T. R. Furlani,
 S. R. Gwaltney, A. Heyden, S. Hirata, C.-P. Hsu, G. Kedziora,
 R. Z. Khaliullin, P. Klunzinger, A. M. Lee, M. S. Lee, W. Liang,
 I. Lotan, N. Nair, B. Peters, E. I. Proynov, P. A. Pieniazek, 
 Y. M. Rhee, J. Ritchie, E. Rosta, C. D. Sherrill, 
 A. C. Simmonett, J. E. Subotnik, H. L. Woodcock III,
 W. Zhang, A. T. Bell, A. K. Chakraborty, D. M. Chipman,
 F. J. Keil, A. Warshel, W. J. Hehre, H. F. Schaefer III,
 J. Kong, A. I. Krylov, P. M. W. Gill, M. Head-Gordon,
 Q-Chem, Version 3.1, Q-Chem, Inc., Pittsburgh, PA (2007).

 Additional authors for Version 3.1: 
 Z. Gan, Y. Zhao, N. E. Schultz, D. Truhlar, E. Epifanovsky and M. Oana.

 Additional authors for Version 3.2: 
 R. Baer, B. R. Brooks, D. Casanova, J.-D. Chai, C.-L. Cheng, 
 C. Cramer, D. Crittenden, A. Ghysels, G. Hawkins, E. G. Hohenstein, 
 C. Kelley, W. Kurlancheek, D. Liotard, E. Livshits, P. Manohar, 
 A. Marenich, D. Neuhauser, R. Olson, M. A. Rohrdanz, K. S. Thanthiriwatte, 
 A. J. W. Thom, V. Vanovschi, C. F. Williams, Q. Wu and Z.-Q. You. 

This is an unofficial Q-Chem Version 3.90 for the Clean Energy Project   on World Community Grid.


 Intel X86 Linux Version

theFileMan(): MAXOPENFILES=974 MAX_SUB_FILE_NUM=16
Maximum size of a physical file is 2.0 GB, maximum size of a tmp-file is 32.0 GB


--------------------------------------------------------------
User input:
--------------------------------------------------------------
$molecule
READ 
$end

$rem
MEM_TOTAL 512
MEM_STATIC 64

JOBTYPE OPT
GEOM_OPT_MAX_CYCLES 100
!GEOM_OPT_SYMFLAG 0
GEOM_OPT_PRINT 2

SYMMETRY FALSE

!BP86
EXCHANGE B
CORRELATION P86

BASIS GEN
PURECART 1111

SCF_GUESS READ
DIIS_RESTART FALSE
CEP_PARTIAL_FOCK_TIME 1000000

!BLAS3_DFT TRUE
!INCFOCK FALSE
!FAST_XC TRUE
!VARTHRESH 3
XC_GRID 1
!XC_SMART_GRID TRUE
MAX_SCF_CYCLES 100

PRINT_ORBITALS FALSE
SCF_PRINT 1
SCF_FINAL_PRINT 1
POP_MULLIKEN 0
NBO 1

$end

$nbo
{ cmo dipole nbbp nlmo mulorb }
$end

!Def2-SVP
$basis
H     0 
S   3   1.00
     13.0107010              0.19682158E-01   
      1.9622572              0.13796524       
      0.44453796             0.47831935       
S   1   1.00
      0.12194962             1.0000000        
P   1   1.00
      0.8000000              1.0000000        
****
B     0 
S   5   1.00
    839.31830086            -0.55929201074E-02      
    126.26464843            -0.41565520771E-01      
     28.620600763           -0.18299816983    
      7.8793722710          -0.46540391866    
      2.4088857172          -0.44173884791    
S   1   1.00
      0.25105109036          1.0000000        
S   1   1.00
      0.83648866069E-01            1.0000000        
P   3   1.00
      6.0332223619          -0.35603672456E-01      
      1.2499157866          -0.19895775769    
      0.33871676350         -0.50850202618    
P   1   1.00
      0.96415632351E-01            1.0000000        
D   1   1.00
      0.5000000              1.0000000        
****
C     0 
S   5   1.00
   1238.4016938              0.54568832082E-02      
    186.29004992             0.40638409211E-01      
     42.251176346            0.18025593888    
     11.676557932            0.46315121755    
      3.5930506482           0.44087173314    
S   1   1.00
      0.40245147363          1.0000000        
S   1   1.00
      0.13090182668          1.0000000        
P   3   1.00
      9.4680970621           0.38387871728E-01      
      2.0103545142           0.21117025112    
      0.54771004707          0.51328172114    
P   1   1.00
      0.15268613795          1.0000000        
D   1   1.00
      0.8000000              1.0000000        
****
N     0 
S   5   1.00
   1712.8415853             -0.53934125305E-02      
    257.64812677            -0.40221581118E-01      
     58.458245853           -0.17931144990    
     16.198367905           -0.46376317823    
      5.0052600809          -0.44171422662    
S   1   1.00
      0.58731856571          1.0000000        
S   1   1.00
      0.18764592253          1.0000000        
P   3   1.00
     13.571470233           -0.40072398852E-01      
      2.9257372874          -0.21807045028    
      0.79927750754         -0.51294466049    
P   1   1.00
      0.21954348034          1.0000000        
D   1   1.00
      1.0000000              1.0000000        
****
O     0 
S   5   1.00
   2266.1767785             -0.53431809926E-02      
    340.87010191            -0.39890039230E-01      
     77.363135167           -0.17853911985    
     21.479644940           -0.46427684959    
      6.6589433124          -0.44309745172    
S   1   1.00
      0.80975975668          1.0000000        
S   1   1.00
      0.25530772234          1.0000000        
P   3   1.00
     17.721504317            0.43394573193E-01      
      3.8635505440           0.23094120765    
      1.0480920883           0.51375311064    
P   1   1.00
      0.27641544411          1.0000000        
D   1   1.00
      1.2000000              1.0000000        
****
F     0 
S   5   1.00
   2894.8325990             -0.53408255515E-02      
    435.41939120            -0.39904258866E-01      
     98.843328866           -0.17912768038    
     27.485198001           -0.46758090825    
      8.5405498171          -0.44653131020    
S   1   1.00
      1.0654578038           1.0000000        
S   1   1.00
      0.33247346748          1.0000000        
P   3   1.00
     22.696633924           -0.45212874436E-01      
      4.9872339257          -0.23754317067    
      1.3491613954          -0.51287353587    
P   1   1.00
      0.34829881977          1.0000000        
D   1   1.00
      1.4000000              1.0000000        
****
Al     0 
S   5   1.00
   5887.5727030              0.13483347987E-02      
    885.61225996             0.10071576809E-01      
    201.13604899             0.45132454056E-01      
     56.284974674            0.11461268043    
     17.229551243            0.10159608943    
S   3   1.00
     29.340249922            0.69347454208E-01      
      3.0439630420          -0.42528117679    
      1.1285539518          -0.41449832210    
S   1   1.00
      0.14234175160          1.0000000        
S   1   1.00
      0.54400192313E-01            1.0000000        
P   5   1.00
    145.11918809             0.63963373134E-02      
     33.717894833            0.44189359965E-01      
     10.369863083            0.15581575993    
      3.5135616036           0.28635286951    
      1.1980050273           0.22921423248    
P   1   1.00
      0.26583005913          1.0000000        
P   1   1.00
      0.71003361994E-01            1.0000000        
D   1   1.00
      0.3000000              1.0000000        
****
Si     0 
S   5   1.00
   6903.7118686              0.13373962995E-02      
   1038.4346419              0.99966546241E-02      
    235.87581480             0.44910165101E-01      
     66.069385169            0.11463638540    
     20.247945761            0.10280063858    
S   3   1.00
     34.353481730            0.70837285010E-01      
      3.6370788192          -0.43028836252    
      1.4002048599          -0.41382774969    
S   1   1.00
      0.20484414805          1.0000000        
S   1   1.00
      0.77994095468E-01            1.0000000        
P   5   1.00
    179.83907373             0.61916656462E-02      
     41.907258846            0.43399431982E-01      
     12.955294367            0.15632019351    
      4.4383267393           0.29419996982    
      1.5462247904           0.23536823814    
P   1   1.00
      0.35607612302          1.0000000        
P   1   1.00
      0.10008513762          1.0000000        
D   1   1.00
      0.3500000              1.0000000        
****
P     0 
S   5   1.00
   8002.4795106              0.57503489302E-02      
   1203.6813590              0.43007628959E-01      
    273.44227031             0.19363986252    
     76.655541517            0.49651693399    
     23.516927435            0.44983262479    
S   3   1.00
     39.791683439            0.95188129789E-01      
      4.2770343323          -0.57649840368    
      1.6940256888          -0.54239583865    
S   1   1.00
      0.27567674644          1.0000000        
S   1   1.00
      0.10495590099          1.0000000        
P   5   1.00
    219.50755823             0.92100565257E-02      
     51.274155030            0.65409765745E-01      
     15.921595892            0.24033730279    
      5.5069913481           0.46318321788    
      1.9537719426           0.37392563382    
P   1   1.00
      0.47803397932          1.0000000        
P   1   1.00
      0.13657952621          1.0000000        
D   1   1.00
      0.4500000              1.0000000        
****
S     0 
S   5   1.00
   9184.9303010             -0.22294387756E-02      
   1381.5105503             -0.16683029937E-01      
    313.87147580            -0.75262436116E-01      
     88.053870623           -0.19376827038    
     27.039914905           -0.17718020803    
S   3   1.00
     45.648731303           -0.10736062573    
      4.9664522326           0.65066293018    
      2.0116242047           0.59712155354    
S   1   1.00
      0.35661077013          1.0000000        
S   1   1.00
      0.13507221477          1.0000000        
P   5   1.00
    261.98233439            -0.92729929822E-02      
     61.306894736           -0.66547669241E-01      
     19.103729887           -0.24828595903    
      6.6567720378          -0.48703847402    
      2.3959635161          -0.39337850312    
P   1   1.00
      0.61776161679          1.0000000        
P   1   1.00
      0.16993376871          1.0000000        
D   1   1.00
      0.5500000              1.0000000        
****
Cl     0 
S   5   1.00
  10449.8275660              0.19708362484E-02      
   1571.7365221              0.14754727977E-01      
    357.12065523             0.66679112875E-01      
    100.25185935             0.17228924084    
     30.812727554            0.15883786100    
S   3   1.00
     51.923789434           -0.10009298909    
      5.7045760975           0.60841752753    
      2.3508376809           0.54352153355    
S   1   1.00
      0.44605124672          1.0000000        
S   1   1.00
      0.16848856190          1.0000000        
P   5   1.00
    307.66790569            -0.87801484118E-02      
     72.102015515           -0.63563355471E-01      
     22.532680262           -0.24016428276    
      7.8991765444          -0.47798866557    
      2.8767268321          -0.38515850005    
P   1   1.00
      0.77459363955          1.0000000        
P   1   1.00
      0.21037699698          1.0000000        
D   1   1.00
      0.6500000              1.0000000        
****
Se     0 
S   6   1.00
 106612.2002700              0.14274889113E-02      
  16007.6047010              0.10943525114E-01      
   3642.1699707              0.54374171596E-01      
   1028.5912993              0.19018092947    
    335.30298888             0.38913021696    
    115.80129154             0.30620207088    
S   3   1.00
    222.93325020            -0.11198808009    
     26.726257934            0.64752124207    
     11.124501923            0.44241976651    
S   3   1.00
     19.888520061           -0.22857227762    
      3.3668473803           0.73591359951    
      1.5249277839           0.44330199577    
S   1   1.00
      0.29630037912          1.0000000        
S   1   1.00
      0.11009288974          1.0000000        
P   5   1.00
   1455.9068120              0.88203597043E-02      
    343.75101831             0.66875851967E-01      
    109.29554964             0.26640578080    
     39.707711022            0.53834928422    
     14.950185232            0.36303281993    
P   3   1.00
      8.0208962094           0.34153807025    
      3.2934649756           0.57257906583    
      1.4058602438           0.25549813222    
P   1   1.00
      0.45076123226          1.0000000        
P   1   1.00
      0.13353413325          1.0000000        
D   4   1.00
     94.494024044            0.23490101098D-01      
     27.188185260            0.13747735767D+00      
      9.5091567352           0.36649929124D+00      
      3.4170516853           0.48750989884D+00      
D   1   1.00
      1.1479590083           1.0000000        
D   1   1.00
      0.3380000              1.0000000        
****
Br     0 
S   6   1.00
 113286.3877600              0.14283037779E-02      
  17009.6263030              0.10950417496E-01      
   3870.1842567              0.54421006604E-01      
   1093.0357227              0.19047907695    
    356.39721797             0.39024642737    
    123.12539643             0.30814432514    
S   3   1.00
    236.74084007            -0.11228065671    
     28.468661070            0.64775962312    
     11.883443722            0.44235575986    
S   3   1.00
     21.269633312           -0.22642576323    
      3.6129226841           0.73823712008    
      1.6626648969           0.42683868694    
S   1   1.00
      0.34823793232          1.0000000        
S   1   1.00
      0.13019031394          1.0000000        
P   5   1.00
   1560.2801881              0.87166669072E-02      
    368.47859205             0.66243637420E-01      
    117.22978849             0.26495610385    
     42.648909248            0.53839160587    
     16.087225096            0.36579387888    
P   3   1.00
      8.6352810058           0.34248787366    
      3.5613665502           0.57500678213    
      1.5292626609           0.24330394172    
P   1   1.00
      0.53064294848          1.0000000        
P   1   1.00
      0.15702758965          1.0000000        
D   4   1.00
    104.85518642             0.22650147581D-01      
     30.281143688            0.13455483230    
     10.651394267            0.36474454537    
      3.8699456233           0.49044587056    
D   1   1.00
      1.3240876762           1.0000000        
D   1   1.00
      0.3890000              1.0000000        
****
$end
--------------------------------------------------------------
 Writing REM_CC_EA            0
 ----------------------------------------------------
       Standard Nuclear Orientation (Angstroms)
    I     Atom         X            Y            Z
 ----------------------------------------------------
    1      N       3.182234     1.010160    -0.000840
    2      H       3.366650     1.962570    -0.000154
    3      C       4.121214     0.017507    -0.000066
    4      C       3.501183    -1.178432    -0.000295
    5      C       2.109680    -0.948727    -0.000771
    6      N       0.867954    -1.542695    -0.000074
    7      H       0.705089    -2.499583    -0.000070
    8      C      -0.124222    -0.555336    -0.001220
    9      C      -1.596357    -0.546868    -0.000539
   10      C      -2.694783    -1.611815     0.000383
   11      C      -4.000886    -0.857510     0.000243
   12      C      -3.704716     0.441425     0.000433
   13      C      -2.274093     0.631547    -0.000051
   14      Si     -0.864952     1.889351    -0.000277
   15      H      -0.869594     2.724721    -1.228328
   16      H      -0.870755     2.726058     1.226981
   17      C       0.557282     0.651328    -0.000678
   18      C       1.924397     0.431768     0.004193
   19      H       5.191262     0.168103     0.000675
   20      H       3.985124    -2.144006     0.000459
   21      H      -2.619624    -2.230964    -0.893883
   22      H      -2.618485    -2.231347     0.894306
   23      H      -4.991167    -1.288180     0.000136
   24      H      -4.432676     1.240118     0.000359
 ----------------------------------------------------
 Molecular Point Group                 C1    NOp =  1
 Largest Abelian Subgroup              C1    NOp =  1
 Nuclear Repulsion Energy =   907.6497810047 hartrees
 There are       52 alpha and       52 beta electrons
 Requested basis set is non-standard
 There are 116 shells and 250 basis functions

Total QAlloc Memory Limit    512 MB
Mega-Array Size        63 MB
MEM_STATIC part        64 MB
 A cutoff of  1.0D-11 yielded   5414 shell pairs
 There are  24530 function pairs ( 27248 Cartesian)
Evaluating contribution to one-electron hamiltonian from nuclear
 Smallest overlap matrix eigenvalue = 2.63E-04
 Multipole matrices computed through 2nd order

  Scale SEOQF with 1.000000e-01/1.000000e-01/1.000000e+00

 Standard Electronic Orientation quadrupole field applied
 Nucleus-field energy     =     0.0000000314 hartrees
 Guess MOs from SCF MO coefficient file
Reading MOs from coefficient file
Reading MOs from coefficient file
 A restricted Kohn-Sham SCF calculation will be
 performed using Pulay DIIS extrapolation
 Exchange:  Becke88      Correlation:  Perdew '86
 Using SG-1 standard quadrature grid
 SCF converges when DIIS error is below 1.0E-08
 Maximum number of SCF iterations = 100
 Requested basis set is non-standard
 There are 116 shells and 250 basis functions
 A cutoff of  1.0D-11 yielded   5414 shell pairs
 There are  24530 function pairs ( 27248 Cartesian)
 ---------------------------------------
  Cycle       Energy         DIIS Error
 ---------------------------------------
    1    -823.6708338434      1.98E-06
    2    -823.6708337576      2.49E-06
    3    -823.6708338992      1.60E-06
    4    -823.6708338214      4.56E-07
    5    -823.6708338222      1.12E-07
    6    -823.6708338218      3.16E-08
    7    -823.6708338240      6.12E-09 Convergence criterion met
 ---------------------------------------
 One-Electron    Energy = -2925.4119991121
 Total Coulomb   Energy =  1292.3775945282
 Alpha Exchange  Energy =     0.0000000000
 Beta  Exchange  Energy =     0.0000000000
 DFT   Exchange  Energy =   -94.3811305851
 DFT Correlation Energy =    -3.9050796910
 Nuclear Repu.   Energy =   907.6497810361
 Nuclear Attr.   Energy = -3742.5143730116
 Kinetic         Energy =   817.1023738995
 SCF time:  CPU 192.09 s  wall 212.41 s
 Final Alpha MO Eigenvalues
            1           2           3           4           5           6
    1 -65.4401177 -14.0552975 -14.0535092  -9.9446535  -9.9318080  -9.9256055
            7           8           9          10          11          12
    1  -9.9250241  -9.9249642  -9.9233727  -9.9057595  -9.9035831  -9.8963787
           13          14          15          16          17          18
    1  -9.8910356  -9.8866719  -5.0498839  -3.4650638  -3.4639306  -3.4637655
           19          20          21          22          23          24
    1  -0.9058012  -0.8730646  -0.7835483  -0.7119570  -0.7026399  -0.6718938
           25          26          27          28          29          30
    1  -0.6290879  -0.6124585  -0.5566049  -0.5414521  -0.5293653  -0.5124843
           31          32          33          34          35          36
    1  -0.4794320  -0.4657796  -0.4476242  -0.4208690  -0.4104706  -0.4062781
           37          38          39          40          41          42
    1  -0.3910464  -0.3906201  -0.3746723  -0.3467590  -0.3421794  -0.3362684
           43          44          45          46          47          48
    1  -0.3256286  -0.3149361  -0.3081895  -0.2684686  -0.2670603  -0.2562246
           49          50          51          52          53          54
    1  -0.2446361  -0.2157556  -0.1898415  -0.1546347  -0.0650109   0.0004017
           55          56          57
    1   0.0177869   0.0298708   0.0370789
 Analysis of SCF Wavefunction
 
 --------------------------------------------------------------
                    Orbital Energies (a.u.)
 --------------------------------------------------------------
 
 Alpha MOs
 -- Occupied --
-65.440 -14.055 -14.054  -9.945  -9.932  -9.926  -9.925  -9.925
 -9.923  -9.906  -9.904  -9.896  -9.891  -9.887  -5.050  -3.465
 -3.464  -3.464  -0.906  -0.873  -0.784  -0.712  -0.703  -0.672
 -0.629  -0.612  -0.557  -0.541  -0.529  -0.512  -0.479  -0.466
 -0.448  -0.421  -0.410  -0.406  -0.391  -0.391  -0.375  -0.347
 -0.342  -0.336  -0.326  -0.315  -0.308  -0.268  -0.267  -0.256
 -0.245  -0.216  -0.190  -0.155
 -- Virtual --
 -0.065   0.000   0.018   0.030   0.037   0.046   0.053   0.067
  0.077   0.078   0.084   0.091   0.101   0.107   0.115   0.119
  0.127   0.147   0.148   0.152   0.178   0.188   0.211   0.228
  0.255   0.274   0.284   0.302   0.310   0.315   0.321   0.333
  0.338   0.358   0.361   0.372   0.401   0.409   0.417   0.420
  0.431   0.440   0.449   0.450   0.452   0.463   0.478   0.492
  0.498   0.499   0.513   0.524   0.533   0.534   0.563   0.564
  0.570   0.584   0.605   0.612   0.619   0.621   0.630   0.640
  0.643   0.649   0.672   0.682   0.686   0.691   0.702   0.714
  0.716   0.737   0.748   0.751   0.761   0.779   0.798   0.799
  0.810   0.819   0.841   0.849   0.869   0.871   0.883   0.925
  0.949   0.958   1.013   1.042   1.056   1.113   1.117   1.145
  1.149   1.173   1.192   1.202   1.212   1.241   1.245   1.259
  1.261   1.275   1.287   1.307   1.330   1.344   1.379   1.390
  1.471   1.481   1.487   1.543   1.574   1.579   1.587   1.617
  1.625   1.630   1.642   1.668   1.669   1.679   1.696   1.708
  1.727   1.741   1.746   1.757   1.768   1.797   1.814   1.825
  1.845   1.858   1.883   1.892   1.910   1.927   1.934   1.937
  1.970   1.987   1.999   2.024   2.043   2.067   2.074   2.093
  2.103   2.115   2.118   2.133   2.137   2.163   2.170   2.203
  2.204   2.212   2.257   2.277   2.286   2.332   2.352   2.357
  2.368   2.423   2.444   2.509   2.537   2.580   2.593   2.600
  2.619   2.640   2.660   2.668   2.698   2.701   2.739   2.743
  2.745   2.788   2.808   2.873   2.882   2.961   2.979   3.035
  3.199   3.227   3.280   3.452   3.473   3.560
 --------------------------------------------------------------
 
 -----------------------------------------------------------------
                    Cartesian Multipole Moments
 -----------------------------------------------------------------
    Charge (ESU x 10^10)
                 0.0000
    Dipole Moment (Debye)
         X       1.2952      Y      -1.3842      Z       0.0029
       Tot       1.8957
    Quadrupole Moments (Debye-Ang)
        XX     -77.7024     XY       6.8123     YY     -77.4653
        XZ       0.0087     YZ       0.0035     ZZ     -93.4996
    Octapole Moments (Debye-Ang^2)
       XXX      41.0137    XXY      14.1654    XYY      18.0996
       YYY     -25.2208    XXZ       0.0296    XYZ      -0.0015
       YYZ       0.0098    XZZ       0.4304    YZZ      -4.8814
       ZZZ       0.0022
    Hexadecapole Moments (Debye-Ang^3)
      XXXX   -3186.0306   XXXY      96.7483   XXYY    -654.8263
      XYYY      36.2928   YYYY    -841.1423   XXXZ       0.1904
      XXYZ      -0.0021   XYYZ      -0.0010   YYYZ      -0.0020
      XXZZ    -667.4364   XYZZ      14.2049   YYZZ    -179.8188
      XZZZ      -0.0055   YZZZ       0.0008   ZZZZ    -131.4627
 -----------------------------------------------------------------
 Calculating analytic gradient of the SCF energy
 Gradient of AOints
            1           2           3           4           5           6
    1  -8.7684998  -2.2610238 -13.9540762  -9.9837182  -2.4815119  -1.3136232
    2 -10.0927263  -8.7284346  -1.1930348   6.5799713  13.9627445  12.4415485
    3   0.0451312  -0.0006745  -0.0227230   0.0527577   0.0014126  -0.0098728
            7           8           9          10          11          12
    1   1.3292176   8.0598597  -3.0240504   5.4848053  11.4234724   9.4315943
    2   9.4864143   7.3739361   8.8967217  10.3935211   6.6456601  -6.5825366
    3  -0.0025469   0.0640316   0.0057764  -0.0085274   0.0001757  -0.0076377
           13          14          15          16          17          18
    1  10.0766541   3.2457797   0.1887584   0.1974695  -1.7396876  -6.9943046
    2 -11.4816675 -20.0616950  -3.9568835  -3.9649160  -8.6339263 -12.4831467
    3  -0.0031222  -0.0024680   5.0275890  -5.0240455   0.0569122  -0.1642281
           19          20          21          22          23          24
    1  -7.3332577  -3.6234327   0.1483085   0.1394208   6.5460861   5.2057600
    2  -0.4465011   6.3818867   3.9376692   3.9429565   2.4808656  -4.8984270
    3  -0.0053373  -0.0064370   5.7055445  -5.7033808   0.0014612   0.0002089
 Gradient of SCF Energy
            1           2           3           4           5           6
    1   0.0205033  -0.0092716  -0.0165334   0.0099110   0.0028482   0.0058699
    2   0.0193898  -0.0475591  -0.0161467   0.0554452   0.0081378  -0.0222140
    3  -0.0004570  -0.0000736   0.0001474   0.0000890  -0.0008617   0.0002277
            7           8           9          10          11          12
    1   0.0076746  -0.0045056   0.0072118  -0.0077442  -0.0130379  -0.0043106
    2   0.0482641   0.0227466   0.0390758   0.0009762   0.0215368  -0.0289535
    3   0.0000336  -0.0001086  -0.0000685   0.0001439  -0.0000966   0.0000654
           13          14          15          16          17          18
    1  -0.0242729  -0.0004273   0.0001755   0.0001203   0.0424958  -0.0136833
    2  -0.0403844  -0.0067946  -0.0079100  -0.0078612  -0.0591653  -0.0052659
    3   0.0000059   0.0000051   0.0043624  -0.0043359  -0.0002875   0.0011568
           19          20          21          22          23          24
    1  -0.0096116  -0.0079468  -0.0019105  -0.0018756   0.0102604   0.0080604
    2  -0.0092011   0.0098216   0.0147399   0.0146834   0.0085965  -0.0119581
    3   0.0000127   0.0000465   0.0092984  -0.0092867  -0.0000156  -0.0000032
 Max gradient component =       5.917E-02
 RMS gradient           =       1.779E-02
 Gradient time:  CPU 88.37 s  wall 90.73 s
 Geometry Optimization Parameters
   NAtoms,    NIC,     NZ,  NCons,   NDum,   NFix, NCnnct, MaxDiis
       24     199       0       0       0       0       0       0


** GEOMETRY OPTIMIZATION IN DELOCALIZED INTERNAL COORDINATES **
   Searching for a Minimum

   Optimization Cycle:   1

                       Coordinates (Angstroms)
     ATOM              X           Y           Z
    1  N           3.182234    1.010160   -0.000840
    2  H           3.366650    1.962570   -0.000154
    3  C           4.121214    0.017507   -0.000066
    4  C           3.501183   -1.178432   -0.000295
    5  C           2.109680   -0.948727   -0.000771
    6  N           0.867954   -1.542695   -0.000074
    7  H           0.705089   -2.499583   -0.000070
    8  C          -0.124222   -0.555336   -0.001220
    9  C          -1.596357   -0.546868   -0.000539
   10  C          -2.694783   -1.611815    0.000383
   11  C          -4.000886   -0.857510    0.000243
   12  C          -3.704716    0.441425    0.000433
   13  C          -2.274093    0.631547   -0.000051
   14  Si         -0.864952    1.889351   -0.000277
   15  H          -0.869594    2.724721   -1.228328
   16  H          -0.870755    2.726058    1.226981
   17  C           0.557282    0.651328   -0.000678
   18  C           1.924397    0.431768    0.004193
   19  H           5.191262    0.168103    0.000675
   20  H           3.985124   -2.144006    0.000459
   21  H          -2.619624   -2.230964   -0.893883
   22  H          -2.618485   -2.231347    0.894306
   23  H          -4.991167   -1.288180    0.000136
   24  H          -4.432676    1.240118    0.000359
   Point Group: c1    Number of degrees of freedom:  66


   Energy is   -823.670833824


 Attempting to Generate Delocalized Internal Coordinates

 66 Hessian modes will be used to form the next step
  Hessian Eigenvalues:
     0.006975    0.009114    0.011533    0.013251    0.014082    0.016527
     0.017172    0.017898    0.018779    0.018815    0.019802    0.020490
     0.022092    0.023472    0.024036    0.024659    0.026132    0.046430
     0.054686    0.071349    0.073185    0.074286    0.082311    0.088666
     0.098899    0.159996    0.160000    0.160000    0.160000    0.160000
     0.160000    0.175229    0.175276    0.205328    0.207165    0.222563
     0.222651    0.237212    0.239965    0.242605    0.244446    0.249974
     0.249997    0.287152    0.305600    0.343456    0.347787    0.347806
     0.359141    0.359227    0.359868    0.360092    0.377169    0.382220
     0.403733    0.415780    0.442943    0.465856    0.467960    0.476541
     0.490690    0.499523    0.532444    0.533565    0.537241    0.565594

 Minimum Search - Taking Simple RFO Step
 Searching for Lamda that Minimizes Along All modes
 Value Taken    Lamda =  -0.05266619
 Calculated Step too Large.  Step scaled by  0.813787
 Step Taken.  Stepsize is  0.300000

                             Maximum     Tolerance    Cnvgd?
         Gradient           0.062724      0.000300      NO
         Displacement       0.155135      0.001200      NO
         Energy change     *********      0.000001      NO


 New Cartesian Coordinates Obtained by Inverse Iteration

 Displacement from previous Coordinates is:  0.624903
 Writing REM_CC_EA           24
 ----------------------------------------------------
       Standard Nuclear Orientation (Angstroms)
    I     Atom         X            Y            Z
 ----------------------------------------------------
    1      N       3.160530     1.006389    -0.000594
    2      H       3.363697     1.991348     0.000508
    3      C       4.096968    -0.013032    -0.000316
    4      C       3.471025    -1.246041     0.000035
    5      C       2.072566    -0.972175    -0.000067
    6      N       0.823834    -1.559031     0.000151
    7      H       0.636744    -2.548107     0.000023
    8      C      -0.135787    -0.537605    -0.001209
    9      C      -1.587218    -0.545947    -0.000633
   10      C      -2.638395    -1.653900     0.000127
   11      C      -3.940524    -0.883602     0.000395
   12      C      -3.675185     0.453368     0.000381
   13      C      -2.242733     0.675936    -0.000173
   14      Si     -0.874649     1.985915    -0.000398
   15      H      -0.885546     2.843475    -1.231614
   16      H      -0.885923     2.844483     1.230132
   17      C       0.517372     0.714773    -0.001004
   18      C       1.896696     0.439349     0.003639
   19      H       5.173636     0.168629     0.000125
   20      H       3.960682    -2.223160     0.000532
   21      H      -2.549953    -2.294420    -0.899171
   22      H      -2.548795    -2.294655     0.899112
   23      H      -4.932471    -1.343256     0.000534
   24      H      -4.426813     1.250463     0.000410
 ----------------------------------------------------
 Molecular Point Group                 C1    NOp =  1
 Largest Abelian Subgroup              C1    NOp =  1
 Nuclear Repulsion Energy =   901.9472603683 hartrees
 There are       52 alpha and       52 beta electrons
 Applying Cartesian multipole field
    Component          Value
    ---------          -----
     (2,0,0)        1.00000E-11
     (0,2,0)        2.00000E-11
     (0,0,2)       -3.00000E-10
 Nucleus-field energy     =     0.0000000317 hartrees
 Requested basis set is non-standard
 There are 116 shells and 250 basis functions
 A cutoff of  1.0D-11 yielded   5408 shell pairs
 There are  24546 function pairs ( 27275 Cartesian)
Evaluating contribution to one-electron hamiltonian from nuclear
 Smallest overlap matrix eigenvalue = 3.00E-04
 Multipole matrices computed through 2nd order
 Guess MOs from SCF MO coefficient file
Reading MOs from coefficient file
Reading MOs from coefficient file
 A restricted Kohn-Sham SCF calculation will be
 performed using Pulay DIIS extrapolation
 Exchange:  Becke88      Correlation:  Perdew '86
 Using SG-1 standard quadrature grid
 SCF converges when DIIS error is below 1.0E-08
 Maximum number of SCF iterations = 100
 Requested basis set is non-standard
 There are 116 shells and 250 basis functions
 A cutoff of  1.0D-11 yielded   5408 shell pairs
 There are  24546 function pairs ( 27275 Cartesian)
 Warning!  Inaccurate integrated density:
   Number of electrons =   104
   Numerical integral  =   103.835552117162
   Relative error      =    -0.1581229643 %
 ---------------------------------------
  Cycle       Energy         DIIS Error
 ---------------------------------------
    1    -823.6037026140      2.56E-03
    2    -823.6943108035      5.24E-04
    3    -823.6859814355      1.11E-03
    4    -823.6964725945      2.40E-04
    5    -823.6970168598      5.05E-05
    6    -823.6970325734      3.11E-05
    7    -823.6970403422      8.11E-06
    8    -823.6970407057      4.73E-06
    9    -823.6970410683      1.17E-06
   10    -823.6970410797      3.21E-07
   11    -823.6970410790      1.59E-07
   12    -823.6970410795      4.64E-08
   13    -823.6970410792      2.28E-08
   14    -823.6970410797      4.37E-09 Convergence criterion met
 ---------------------------------------
 One-Electron    Energy = -2914.2753848539
 Total Coulomb   Energy =  1286.7341197473
 Alpha Exchange  Energy =     0.0000000000
 Beta  Exchange  Energy =     0.0000000000
 DFT   Exchange  Energy =   -94.2080782996
 DFT Correlation Energy =    -3.8949580735
 Nuclear Repu.   Energy =   901.9472604000
 Nuclear Attr.   Energy = -3730.6235113809
 Kinetic         Energy =   816.3481265271
 SCF time:  CPU 394.99 s  wall 420.59 s
 Final Alpha MO Eigenvalues
            1           2           3           4           5           6
    1 -65.4469911 -14.0607760 -14.0578170  -9.9439250  -9.9368120  -9.9312289
            7           8           9          10          11          12
    1  -9.9302268  -9.9276069  -9.9233523  -9.9093163  -9.9049942  -9.9041787
           13          14          15          16          17          18
    1  -9.8929754  -9.8912972  -5.0559345  -3.4707307  -3.4704055  -3.4699212
           19          20          21          22          23          24
    1  -0.8978305  -0.8663664  -0.7750823  -0.7059099  -0.6938030  -0.6634090
           25          26          27          28          29          30
    1  -0.6294347  -0.6009896  -0.5506650  -0.5386945  -0.5261169  -0.5074072
           31          32          33          34          35          36
    1  -0.4778704  -0.4633669  -0.4402751  -0.4146035  -0.4140281  -0.4011217
           37          38          39          40          41          42
    1  -0.3851454  -0.3838124  -0.3678654  -0.3427736  -0.3344483  -0.3324504
           43          44          45          46          47          48
    1  -0.3259450  -0.3132635  -0.3087133  -0.2773918  -0.2682957  -0.2666418
           49          50          51          52          53          54
    1  -0.2429409  -0.2094850  -0.1892622  -0.1479169  -0.0710184  -0.0035367
           55          56          57
    1   0.0115041   0.0208128   0.0313211
 Analysis of SCF Wavefunction
 
 --------------------------------------------------------------
                    Orbital Energies (a.u.)
 --------------------------------------------------------------
 
 Alpha MOs
 -- Occupied --
-65.447 -14.061 -14.058  -9.944  -9.937  -9.931  -9.930  -9.928
 -9.923  -9.909  -9.905  -9.904  -9.893  -9.891  -5.056  -3.471
 -3.470  -3.470  -0.898  -0.866  -0.775  -0.706  -0.694  -0.663
 -0.629  -0.601  -0.551  -0.539  -0.526  -0.507  -0.478  -0.463
 -0.440  -0.415  -0.414  -0.401  -0.385  -0.384  -0.368  -0.343
 -0.334  -0.332  -0.326  -0.313  -0.309  -0.277  -0.268  -0.267
 -0.243  -0.209  -0.189  -0.148
 -- Virtual --
 -0.071  -0.004   0.012   0.021   0.031   0.040   0.047   0.061
  0.072   0.074   0.083   0.090   0.096   0.107   0.109   0.119
  0.125   0.136   0.144   0.158   0.182   0.187   0.207   0.230
  0.255   0.267   0.280   0.297   0.307   0.310   0.317   0.329
  0.337   0.361   0.365   0.374   0.398   0.402   0.409   0.417
  0.417   0.435   0.440   0.445   0.451   0.452   0.479   0.481
  0.495   0.498   0.511   0.515   0.525   0.531   0.550   0.564
  0.570   0.579   0.602   0.609   0.620   0.620   0.621   0.630
  0.640   0.649   0.661   0.672   0.678   0.686   0.689   0.707
  0.711   0.716   0.733   0.740   0.752   0.774   0.785   0.789
  0.804   0.805   0.825   0.842   0.855   0.865   0.878   0.923
  0.944   0.961   1.003   1.028   1.059   1.116   1.122   1.143
  1.147   1.176   1.186   1.203   1.216   1.225   1.235   1.259
  1.267   1.276   1.281   1.309   1.322   1.336   1.371   1.383
  1.471   1.477   1.490   1.542   1.567   1.570   1.577   1.602
  1.621   1.622   1.632   1.653   1.668   1.668   1.693   1.707
  1.715   1.728   1.741   1.748   1.766   1.770   1.785   1.813
  1.817   1.838   1.860   1.890   1.891   1.912   1.918   1.919
  1.947   1.965   1.979   2.005   2.024   2.050   2.059   2.071
  2.084   2.096   2.097   2.116   2.119   2.134   2.162   2.166
  2.190   2.209   2.231   2.246   2.253   2.302   2.332   2.338
  2.341   2.395   2.412   2.485   2.522   2.562   2.566   2.573
  2.594   2.616   2.624   2.641   2.670   2.678   2.703   2.707
  2.730   2.761   2.779   2.851   2.864   2.912   2.942   2.977
  3.142   3.201   3.242   3.407   3.424   3.486
 --------------------------------------------------------------
 
 -----------------------------------------------------------------
                    Cartesian Multipole Moments
 -----------------------------------------------------------------
    Charge (ESU x 10^10)
                 0.0000
    Dipole Moment (Debye)
         X       1.4332      Y      -1.2875      Z       0.0034
       Tot       1.9266
    Quadrupole Moments (Debye-Ang)
        XX     -80.0310     XY       6.6442     YY     -75.8322
        XZ       0.0078     YZ       0.0066     ZZ     -94.1041
    Octapole Moments (Debye-Ang^2)
       XXX      47.1402    XXY      14.9967    XYY      17.9276
       YYY     -28.9009    XXZ       0.0294    XYZ       0.0043
       YYZ       0.0160    XZZ       0.6047    YZZ      -5.4565
       ZZZ       0.0054
    Hexadecapole Moments (Debye-Ang^3)
      XXXX   -3189.8923   XXXY      98.7541   XXYY    -647.9585
      XYYY      46.8169   YYYY    -886.5975   XXXZ       0.0781
      XXYZ       0.0344   XYYZ       0.0006   YYYZ       0.0524
      XXZZ    -662.2450   XYZZ      17.5815   YYZZ    -189.9918
      XZZZ      -0.0412   YZZZ       0.0409   ZZZZ    -132.8988
 -----------------------------------------------------------------
 Calculating analytic gradient of the SCF energy
 Gradient of AOints
            1           2           3           4           5           6
    1  -8.9754748  -2.3065172 -13.3952139  -9.8544030  -2.5256587  -0.8995328
    2 -10.5046574  -8.6011494  -0.8504308   7.7043032  12.7658830  13.3519645
    3   0.0408486  -0.0054947  -0.0070694   0.0348712  -0.0097011  -0.0044061
            7           8           9          10          11          12
    1   1.4083162   5.0520832   0.1385161   4.9897207  10.7578703   9.7800841
    2   9.4240926   7.3168377   9.1014278  10.5906715   6.7041575  -6.8281658
    3  -0.0009735   0.0475484   0.0046641  -0.0059336  -0.0014374  -0.0065158
           13          14          15          16          17          18
    1   8.6115565   3.3178623   0.2112775   0.2157443  -0.6425767  -6.7293305
    2 -12.0904503 -20.5989936  -4.1350971  -4.1421259  -9.7204004 -11.3668804
    3  -0.0009729  -0.0022244   4.9609466  -4.9580285   0.0571767  -0.1371575
           19          20          21          22          23          24
    1  -7.2136003  -3.6565517   0.0883976   0.0804870   6.3477928   5.1991509
    2  -0.7489503   6.4001967   4.1928415   4.1960804   2.7112638  -4.8724190
    3  -0.0026111  -0.0046231   5.5399436  -5.5383243  -0.0003079  -0.0002180
 Gradient of SCF Energy
            1           2           3           4           5           6
    1   0.0075215  -0.0029786  -0.0082992   0.0078843  -0.0056370   0.0073299
    2   0.0074665  -0.0106295  -0.0025786   0.0148691  -0.0040809  -0.0110272
    3  -0.0003451  -0.0000301   0.0000615   0.0000785  -0.0006818   0.0001729
            7           8           9          10          11          12
    1   0.0026103  -0.0035850   0.0054231  -0.0039393  -0.0014716   0.0014673
    2   0.0103797   0.0103854   0.0150810  -0.0091726   0.0027373  -0.0039928
    3   0.0000255  -0.0000757  -0.0000501   0.0001000  -0.0000470   0.0000494
           13          14          15          16          17          18
    1  -0.0136706   0.0004377   0.0000990   0.0000596   0.0140200  -0.0060206
    2  -0.0086048   0.0014183  -0.0032740  -0.0032389  -0.0181932   0.0057529
    3  -0.0000005   0.0000419   0.0003668  -0.0003701  -0.0002951   0.0009790
           19          20          21          22          23          24
    1  -0.0022967  -0.0027429  -0.0009203  -0.0008979   0.0030610   0.0025461
    2  -0.0049783   0.0010825   0.0049990   0.0049815   0.0028516  -0.0022340
    3   0.0000115   0.0000413   0.0015857  -0.0015988  -0.0000126  -0.0000069
 Max gradient component =       1.819E-02
 RMS gradient           =       5.826E-03
 Gradient time:  CPU 87.84 s  wall 90.27 s
 Geometry Optimization Parameters
   NAtoms,    NIC,     NZ,  NCons,   NDum,   NFix, NCnnct, MaxDiis
       24     199       0       0       0       0       0       0

 Cartesian Hessian Update
 Hessian Updated using BFGS Update


** GEOMETRY OPTIMIZATION IN DELOCALIZED INTERNAL COORDINATES **
   Searching for a Minimum

   Optimization Cycle:   2

                       Coordinates (Angstroms)
     ATOM              X           Y           Z
    1  N           3.160530    1.006389   -0.000594
    2  H           3.363697    1.991348    0.000508
    3  C           4.096968   -0.013032   -0.000316
    4  C           3.471025   -1.246041    0.000035
    5  C           2.072566   -0.972175   -0.000067
    6  N           0.823834   -1.559031    0.000151
    7  H           0.636744   -2.548107    0.000023
    8  C          -0.135787   -0.537605   -0.001209
    9  C          -1.587218   -0.545947   -0.000633
   10  C          -2.638395   -1.653900    0.000127
   11  C          -3.940524   -0.883602    0.000395
   12  C          -3.675185    0.453368    0.000381
   13  C          -2.242733    0.675936   -0.000173
   14  Si         -0.874649    1.985915   -0.000398
   15  H          -0.885546    2.843475   -1.231614
   16  H          -0.885923    2.844483    1.230132
   17  C           0.517372    0.714773   -0.001004
   18  C           1.896696    0.439349    0.003639
   19  H           5.173636    0.168629    0.000125
   20  H           3.960682   -2.223160    0.000532
   21  H          -2.549953   -2.294420   -0.899171
   22  H          -2.548795   -2.294655    0.899112
   23  H          -4.932471   -1.343256    0.000534
   24  H          -4.426813    1.250463    0.000410
   Point Group: c1    Number of degrees of freedom:  66


   Energy is   -823.697041080

 Hessian Updated using BFGS Update

 66 Hessian modes will be used to form the next step
  Hessian Eigenvalues:
     0.006975    0.009114    0.011533    0.013251    0.014082    0.016527
     0.017172    0.017898    0.018779    0.018815    0.019802    0.020490
     0.022092    0.023472    0.024036    0.024659    0.026132    0.046430
     0.054686    0.071159    0.073183    0.074205    0.082311    0.088666
     0.098899    0.158240    0.159997    0.160000    0.160000    0.160000
     0.160272    0.175251    0.175522    0.205441    0.207162    0.222511
     0.224865    0.234889    0.242094    0.243384    0.248089    0.248852
     0.260213    0.286306    0.305562    0.343449    0.347656    0.347798
     0.358785    0.359227    0.359793    0.360503    0.375909    0.382910
     0.403452    0.411474    0.444322    0.465919    0.469659    0.477727
     0.484759    0.505680    0.532979    0.535814    0.540368    0.580244

 Minimum Search - Taking Simple RFO Step
 Searching for Lamda that Minimizes Along All modes
 Value Taken    Lamda =  -0.00475179
 Step Taken.  Stepsize is  0.142537

                             Maximum     Tolerance    Cnvgd?
         Gradient           0.016637      0.000300      NO
         Displacement       0.072262      0.001200      NO
         Energy change     -0.026207      0.000001      NO


 New Cartesian Coordinates Obtained by Inverse Iteration

 Displacement from previous Coordinates is:  0.245924
 Writing REM_CC_EA           24
 ----------------------------------------------------
       Standard Nuclear Orientation (Angstroms)
    I     Atom         X            Y            Z
 ----------------------------------------------------
    1      N       3.155184     0.990522    -0.000710
    2      H       3.369078     1.985052     0.000888
    3      C       4.098130    -0.030399    -0.000501
    4      C       3.461589    -1.273906     0.000798
    5      C       2.064040    -0.978331     0.001531
    6      N       0.804512    -1.553076     0.000584
    7      H       0.600909    -2.550279     0.000269
    8      C      -0.141180    -0.531267    -0.001066
    9      C      -1.584598    -0.552412    -0.000579
   10      C      -2.619777    -1.659133    -0.000196
   11      C      -3.926528    -0.892735     0.000472
   12      C      -3.666405     0.452816     0.000118
   13      C      -2.225576     0.685343    -0.000321
   14      Si     -0.879091     2.017270    -0.000405
   15      H      -0.895748     2.897758    -1.222845
   16      H      -0.894564     2.897294     1.222348
   17      C       0.501644     0.738727    -0.001909
   18      C       1.888764     0.434444     0.001471
   19      H       5.173208     0.186551    -0.000453
   20      H       3.957734    -2.251134     0.000938
   21      H      -2.522690    -2.316260    -0.894951
   22      H      -2.521691    -2.316550     0.894214
   23      H      -4.918281    -1.367669     0.000953
   24      H      -4.428907     1.246570     0.000275
 ----------------------------------------------------
 Molecular Point Group                 C1    NOp =  1
 Largest Abelian Subgroup              C1    NOp =  1
 Nuclear Repulsion Energy =   900.5548666792 hartrees
 There are       52 alpha and       52 beta electrons
 Applying Cartesian multipole field
    Component          Value
    ---------          -----
     (2,0,0)        1.00000E-11
     (0,2,0)        2.00000E-11
     (0,0,2)       -3.00000E-10
 Nucleus-field energy     =     0.0000000319 hartrees
 Requested basis set is non-standard
 There are 116 shells and 250 basis functions
 A cutoff of  1.0D-11 yielded   5410 shell pairs
 There are  24570 function pairs ( 27305 Cartesian)
Evaluating contribution to one-electron hamiltonian from nuclear
 Smallest overlap matrix eigenvalue = 3.14E-04
 Multipole matrices computed through 2nd order
 Guess MOs from SCF MO coefficient file
Reading MOs from coefficient file
Reading MOs from coefficient file
 A restricted Kohn-Sham SCF calculation will be
 performed using Pulay DIIS extrapolation
 Exchange:  Becke88      Correlation:  Perdew '86
 Using SG-1 standard quadrature grid
 SCF converges when DIIS error is below 1.0E-08
 Maximum number of SCF iterations = 100
 Requested basis set is non-standard
 There are 116 shells and 250 basis functions
 A cutoff of  1.0D-11 yielded   5410 shell pairs
 There are  24570 function pairs ( 27305 Cartesian)
 ---------------------------------------
  Cycle       Energy         DIIS Error
 ---------------------------------------
    1    -823.6775406332      1.03E-03
    2    -823.6992332494      2.36E-04
    3    -823.6966797184      5.89E-04
    4    -823.6996863166      7.75E-05
    5    -823.6997392114      1.97E-05
    6    -823.6997407598      1.28E-05
    7    -823.6997424513      2.94E-06
    8    -823.6997425219      1.57E-06
    9    -823.6997425420      2.83E-07
   10    -823.6997425414      1.30E-07
   11    -823.6997425408      5.38E-08
   12    -823.6997425415      1.45E-08
   13    -823.6997425409      7.17E-09 Convergence criterion met
 ---------------------------------------
 One-Electron    Energy = -2911.5303691757
 Total Coulomb   Energy =  1285.3282344022
 Alpha Exchange  Energy =     0.0000000000
 Beta  Exchange  Energy =     0.0000000000
 DFT   Exchange  Energy =   -94.1601460345
 DFT Correlation Energy =    -3.8923284439
 Nuclear Repu.   Energy =   900.5548667111
 Nuclear Attr.   Energy = -3727.6806511962
 Kinetic         Energy =   816.1502820205
 SCF time:  CPU 362.02 s  wall 387.16 s
 Final Alpha MO Eigenvalues
            1           2           3           4           5           6
    1 -65.4490714 -14.0621767 -14.0581935  -9.9439693  -9.9385173  -9.9327742
            7           8           9          10          11          12
    1  -9.9314746  -9.9293880  -9.9228924  -9.9112046  -9.9069504  -9.9063725
           13          14          15          16          17          18
    1  -9.8945305  -9.8928940  -5.0577364  -3.4723877  -3.4723216  -3.4718018
           19          20          21          22          23          24
    1  -0.8967116  -0.8651848  -0.7740320  -0.7035900  -0.6910830  -0.6619344
           25          26          27          28          29          30
    1  -0.6296620  -0.5990313  -0.5503908  -0.5379620  -0.5239105  -0.5057493
           31          32          33          34          35          36
    1  -0.4778156  -0.4635444  -0.4379512  -0.4158343  -0.4119161  -0.3998404
           37          38          39          40          41          42
    1  -0.3836072  -0.3806880  -0.3665122  -0.3434005  -0.3327332  -0.3316666
           43          44          45          46          47          48
    1  -0.3271123  -0.3118926  -0.3076723  -0.2823605  -0.2723324  -0.2653869
           49          50          51          52          53          54
    1  -0.2415789  -0.2083045  -0.1888005  -0.1468718  -0.0735507  -0.0051966
           55          56          57
    1   0.0091059   0.0180588   0.0285448
 Analysis of SCF Wavefunction
 
 --------------------------------------------------------------
                    Orbital Energies (a.u.)
 --------------------------------------------------------------
 
 Alpha MOs
 -- Occupied --
-65.449 -14.062 -14.058  -9.944  -9.939  -9.933  -9.931  -9.929
 -9.923  -9.911  -9.907  -9.906  -9.895  -9.893  -5.058  -3.472
 -3.472  -3.472  -0.897  -0.865  -0.774  -0.704  -0.691  -0.662
 -0.630  -0.599  -0.550  -0.538  -0.524  -0.506  -0.478  -0.464
 -0.438  -0.416  -0.412  -0.400  -0.384  -0.381  -0.367  -0.343
 -0.333  -0.332  -0.327  -0.312  -0.308  -0.282  -0.272  -0.265
 -0.242  -0.208  -0.189  -0.147
 -- Virtual --
 -0.074  -0.005   0.009   0.018   0.029   0.038   0.048   0.059
  0.069   0.073   0.083   0.089   0.095   0.105   0.108   0.118
  0.124   0.131   0.142   0.159   0.182   0.187   0.206   0.232
  0.256   0.268   0.279   0.295   0.304   0.310   0.316   0.327
  0.336   0.359   0.365   0.374   0.395   0.400   0.406   0.414
  0.417   0.431   0.439   0.443   0.451   0.452   0.478   0.479
  0.493   0.499   0.506   0.515   0.525   0.530   0.546   0.562
  0.571   0.578   0.600   0.607   0.616   0.620   0.620   0.628
  0.638   0.649   0.655   0.669   0.673   0.682   0.690   0.702
  0.708   0.711   0.728   0.738   0.748   0.772   0.782   0.787
  0.798   0.802   0.819   0.837   0.852   0.863   0.878   0.923
  0.944   0.964   0.999   1.023   1.061   1.117   1.124   1.140
  1.146   1.178   1.185   1.204   1.215   1.217   1.235   1.260
  1.267   1.276   1.277   1.312   1.316   1.334   1.365   1.387
  1.468   1.474   1.491   1.537   1.564   1.567   1.570   1.592
  1.616   1.620   1.631   1.653   1.665   1.669   1.696   1.708
  1.711   1.726   1.737   1.742   1.763   1.764   1.776   1.809
  1.810   1.836   1.857   1.885   1.886   1.904   1.914   1.917
  1.941   1.956   1.975   1.997   2.025   2.044   2.048   2.065
  2.083   2.088   2.091   2.107   2.113   2.126   2.151   2.157
  2.188   2.206   2.222   2.232   2.243   2.292   2.322   2.334
  2.338   2.385   2.402   2.477   2.515   2.554   2.555   2.566
  2.591   2.607   2.613   2.632   2.661   2.668   2.696   2.697
  2.728   2.756   2.770   2.841   2.864   2.899   2.940   2.961
  3.131   3.187   3.232   3.391   3.418   3.466
 --------------------------------------------------------------
 
 -----------------------------------------------------------------
                    Cartesian Multipole Moments
 -----------------------------------------------------------------
    Charge (ESU x 10^10)
                 0.0000
    Dipole Moment (Debye)
         X       1.4171      Y      -1.3090      Z       0.0036
       Tot       1.9292
    Quadrupole Moments (Debye-Ang)
        XX     -80.4499     XY       6.7874     YY     -75.5774
        XZ       0.0046     YZ       0.0093     ZZ     -94.3331
    Octapole Moments (Debye-Ang^2)
       XXX      48.5015    XXY      15.3879    XYY      17.4517
       YYY     -30.2083    XXZ       0.0264    XYZ       0.0096
       YYZ       0.0245    XZZ       0.7126    YZZ      -5.5397
       ZZZ       0.0171
    Hexadecapole Moments (Debye-Ang^3)
      XXXX   -3182.8282   XXXY     104.7806   XXYY    -647.0076
      XYYY      51.9728   YYYY    -903.2032   XXXZ      -0.0812
      XXYZ       0.0843   XYYZ      -0.0054   YYYZ       0.1486
      XXZZ    -661.5577   XYZZ      18.9658   YYZZ    -193.3959
      XZZZ      -0.0855   YZZZ       0.1270   ZZZZ    -133.2006
 -----------------------------------------------------------------
 Calculating analytic gradient of the SCF energy
 Gradient of AOints
            1           2           3           4           5           6
    1  -8.9791015  -2.3741748 -13.4935761  -9.6236847  -2.7732439  -1.0013246
    2 -10.4808811  -8.5258656  -0.3937280   7.9167456  12.5443240  13.5129381
    3   0.0344830  -0.0120488   0.0151582   0.0008555  -0.0445275  -0.0050904
            7           8           9          10          11          12
    1   1.5178568   4.4066697   0.8538154   5.0660408  10.7290119   9.6649515
    2   9.3770153   7.0372744   9.3304600  10.3487069   6.7217305  -6.8978934
    3   0.0021152   0.0178407  -0.0011466  -0.0018000  -0.0049313  -0.0017405
           13          14          15          16          17          18
    1   8.1181677   3.4329123   0.2219057   0.2194103  -0.5448998  -6.1260106
    2 -12.2260089 -20.6758414  -4.2990935  -4.3007569 -10.0216919 -10.9515489
    3   0.0043101  -0.0045120   4.8394383  -4.8411034   0.0822130  -0.0763171
           19          20          21          22          23          24
    1  -7.1400179  -3.7437162   0.0274038   0.0214764   6.2807744   5.2393531
    2  -1.0920739   6.3648686   4.3497394   4.3517670   2.8261407  -4.8163269
    3   0.0004865  -0.0017957   5.4028667  -5.4008861  -0.0029800  -0.0008879
 Gradient of SCF Energy
            1           2           3           4           5           6
    1   0.0014700  -0.0005525  -0.0017174   0.0033511  -0.0031116   0.0031428
    2  -0.0006397  -0.0007311   0.0006873   0.0020443  -0.0016657  -0.0010162
    3  -0.0001014   0.0000244  -0.0000479   0.0000334  -0.0000916   0.0000177
            7           8           9          10          11          12
    1   0.0004945  -0.0040296   0.0035049  -0.0008373   0.0005743   0.0003344
    2   0.0006738   0.0022025   0.0027416  -0.0037027  -0.0001883  -0.0004656
    3  -0.0000072   0.0000242  -0.0000040  -0.0000007   0.0000180  -0.0000005
           13          14          15          16          17          18
    1  -0.0019860   0.0000168   0.0001770   0.0001591   0.0012390  -0.0019525
    2   0.0001661   0.0018104  -0.0007975  -0.0007751  -0.0032268   0.0019623
    3  -0.0000134   0.0000868  -0.0004642   0.0004459  -0.0002359   0.0003190
           19          20          21          22          23          24
    1   0.0006083  -0.0004252  -0.0000862  -0.0000777  -0.0004151   0.0001187
    2  -0.0012362  -0.0003758   0.0011483   0.0011555   0.0001122   0.0001162
    3   0.0000033   0.0000067  -0.0003419   0.0003342  -0.0000005  -0.0000044
 Max gradient component =       4.030E-03
 RMS gradient           =       1.376E-03
 Gradient time:  CPU 89.30 s  wall 91.70 s
 Geometry Optimization Parameters
   NAtoms,    NIC,     NZ,  NCons,   NDum,   NFix, NCnnct, MaxDiis
       24     199       0       0       0       0       0       0

 Cartesian Hessian Update
 Hessian Updated using BFGS Update


** GEOMETRY OPTIMIZATION IN DELOCALIZED INTERNAL COORDINATES **
   Searching for a Minimum

   Optimization Cycle:   3

                       Coordinates (Angstroms)
     ATOM              X           Y           Z
    1  N           3.155184    0.990522   -0.000710
    2  H           3.369078    1.985052    0.000888
    3  C           4.098130   -0.030399   -0.000501
    4  C           3.461589   -1.273906    0.000798
    5  C           2.064040   -0.978331    0.001531
    6  N           0.804512   -1.553076    0.000584
    7  H           0.600909   -2.550279    0.000269
    8  C          -0.141180   -0.531267   -0.001066
    9  C          -1.584598   -0.552412   -0.000579
   10  C          -2.619777   -1.659133   -0.000196
   11  C          -3.926528   -0.892735    0.000472
   12  C          -3.666405    0.452816    0.000118
   13  C          -2.225576    0.685343   -0.000321
   14  Si         -0.879091    2.017270   -0.000405
   15  H          -0.895748    2.897758   -1.222845
   16  H          -0.894564    2.897294    1.222348
   17  C           0.501644    0.738727   -0.001909
   18  C           1.888764    0.434444    0.001471
   19  H           5.173208    0.186551   -0.000453
   20  H           3.957734   -2.251134    0.000938
   21  H          -2.522690   -2.316260   -0.894951
   22  H          -2.521691   -2.316550    0.894214
   23  H          -4.918281   -1.367669    0.000953
   24  H          -4.428907    1.246570    0.000275
   Point Group: c1    Number of degrees of freedom:  66


   Energy is   -823.699742541

 Hessian Updated using BFGS Update

 66 Hessian modes will be used to form the next step
  Hessian Eigenvalues:
     0.006975    0.009114    0.011533    0.013251    0.014083    0.016527
     0.017173    0.017898    0.018779    0.018814    0.019803    0.020491
     0.022091    0.023472    0.024036    0.024659    0.026133    0.046431
     0.054685    0.068023    0.073092    0.073568    0.082310    0.088697
     0.098899    0.150284    0.159998    0.160000    0.160000    0.160022
     0.160278    0.175251    0.175679    0.205456    0.207085    0.222682
     0.225306    0.230986    0.241133    0.242930    0.246712    0.248476
     0.259484    0.284935    0.305478    0.344386    0.347797    0.349512
     0.359159    0.359525    0.360171    0.363179    0.376233    0.382419
     0.399683    0.411938    0.440232    0.464996    0.469327    0.477825
     0.481876    0.506109    0.532965    0.535790    0.541637    0.590803

 Minimum Search - Taking Simple RFO Step
 Searching for Lamda that Minimizes Along All modes
 Value Taken    Lamda =  -0.00025230
 Step Taken.  Stepsize is  0.046709

                             Maximum     Tolerance    Cnvgd?
         Gradient           0.002748      0.000300      NO
         Displacement       0.020002      0.001200      NO
         Energy change     -0.002701      0.000001      NO


 New Cartesian Coordinates Obtained by Inverse Iteration

 Displacement from previous Coordinates is:  0.049383
 Writing REM_CC_EA           24
 ----------------------------------------------------
       Standard Nuclear Orientation (Angstroms)
    I     Atom         X            Y            Z
 ----------------------------------------------------
    1      N       3.155406     0.989803    -0.001534
    2      H       3.372459     1.985239    -0.000475
    3      C       4.098165    -0.032571    -0.000330
    4      C       3.459837    -1.278296     0.000936
    5      C       2.064999    -0.979672     0.001739
    6      N       0.802615    -1.553948     0.000914
    7      H       0.594363    -2.551680     0.001089
    8      C      -0.138264    -0.532935    -0.001040
    9      C      -1.584583    -0.557149    -0.000481
   10      C      -2.619647    -1.658420    -0.000264
   11      C      -3.926050    -0.891046    -0.000015
   12      C      -3.663937     0.454450     0.000108
   13      C      -2.221272     0.683313    -0.000138
   14      Si     -0.878657     2.016975    -0.000103
   15      H      -0.900590     2.907259    -1.216013
   16      H      -0.898815     2.905700     1.216942
   17      C       0.502259     0.741175    -0.001810
   18      C       1.890621     0.432794     0.000414
   19      H       5.170503     0.195787    -0.000135
   20      H       3.959122    -2.253813     0.001370
   21      H      -2.523073    -2.322594    -0.891158
   22      H      -2.522634    -2.322834     0.890403
   23      H      -4.916950    -1.367181     0.000179
   24      H      -4.426124     1.248842     0.000326
 ----------------------------------------------------
 Molecular Point Group                 C1    NOp =  1
 Largest Abelian Subgroup              C1    NOp =  1
 Nuclear Repulsion Energy =   900.4770522017 hartrees
 There are       52 alpha and       52 beta electrons
 Applying Cartesian multipole field
    Component          Value
    ---------          -----
     (2,0,0)        1.00000E-11
     (0,2,0)        2.00000E-11
     (0,0,2)       -3.00000E-10
 Nucleus-field energy     =     0.0000000319 hartrees
 Requested basis set is non-standard
 There are 116 shells and 250 basis functions
 A cutoff of  1.0D-11 yielded   5410 shell pairs
 There are  24570 function pairs ( 27305 Cartesian)
Evaluating contribution to one-electron hamiltonian from nuclear
 Smallest overlap matrix eigenvalue = 3.18E-04
 Multipole matrices computed through 2nd order
 Guess MOs from SCF MO coefficient file
Reading MOs from coefficient file
Reading MOs from coefficient file
 A restricted Kohn-Sham SCF calculation will be
 performed using Pulay DIIS extrapolation
 Exchange:  Becke88      Correlation:  Perdew '86
 Using SG-1 standard quadrature grid
 SCF converges when DIIS error is below 1.0E-08
 Maximum number of SCF iterations = 100
 Requested basis set is non-standard
 There are 116 shells and 250 basis functions
 A cutoff of  1.0D-11 yielded   5410 shell pairs
 There are  24570 function pairs ( 27305 Cartesian)
 ---------------------------------------
  Cycle       Energy         DIIS Error
 ---------------------------------------
    1    -823.7004196308      2.23E-04
    2    -823.6998630034      5.07E-05
    3    -823.6997599360      1.19E-04
    4    -823.6998832905      1.74E-05
    5    -823.6998854313      6.16E-06
    6    -823.6998857061      2.14E-06
    7    -823.6998857468      5.92E-07
    8    -823.6998857484      2.87E-07
    9    -823.6998857496      9.04E-08
   10    -823.6998857498      2.85E-08
   11    -823.6998857544      1.40E-08
   12    -823.6998857572      3.49E-09 Convergence criterion met
 ---------------------------------------
 One-Electron    Energy = -2911.3725563780
 Total Coulomb   Energy =  1285.2441573444
 Alpha Exchange  Energy =     0.0000000000
 Beta  Exchange  Energy =     0.0000000000
 DFT   Exchange  Energy =   -94.1563869383
 DFT Correlation Energy =    -3.8921520189
 Nuclear Repu.   Energy =   900.4770522336
 Nuclear Attr.   Energy = -3727.5077174802
 Kinetic         Energy =   816.1351611022
 SCF time:  CPU 323.71 s  wall 346.06 s
 Final Alpha MO Eigenvalues
            1           2           3           4           5           6
    1 -65.4488795 -14.0625312 -14.0582895  -9.9443470  -9.9385197  -9.9330039
            7           8           9          10          11          12
    1  -9.9316180  -9.9297071  -9.9230224  -9.9114553  -9.9072981  -9.9066365
           13          14          15          16          17          18
    1  -9.8946849  -9.8930834  -5.0575492  -3.4721895  -3.4721124  -3.4716452
           19          20          21          22          23          24
    1  -0.8968313  -0.8653451  -0.7742160  -0.7030912  -0.6913023  -0.6615664
           25          26          27          28          29          30
    1  -0.6299197  -0.5988817  -0.5506805  -0.5380898  -0.5238025  -0.5055496
           31          32          33          34          35          36
    1  -0.4781622  -0.4637959  -0.4374345  -0.4161775  -0.4121796  -0.3994270
           37          38          39          40          41          42
    1  -0.3834215  -0.3801926  -0.3665422  -0.3439406  -0.3324544  -0.3316388
           43          44          45          46          47          48
    1  -0.3277259  -0.3120274  -0.3069424  -0.2832565  -0.2728657  -0.2649337
           49          50          51          52          53          54
    1  -0.2413535  -0.2080714  -0.1891253  -0.1467766  -0.0738670  -0.0055657
           55          56          57
    1   0.0085985   0.0180394   0.0279192
 Analysis of SCF Wavefunction
 
 --------------------------------------------------------------
                    Orbital Energies (a.u.)
 --------------------------------------------------------------
 
 Alpha MOs
 -- Occupied --
-65.449 -14.063 -14.058  -9.944  -9.939  -9.933  -9.932  -9.930
 -9.923  -9.911  -9.907  -9.907  -9.895  -9.893  -5.058  -3.472
 -3.472  -3.472  -0.897  -0.865  -0.774  -0.703  -0.691  -0.662
 -0.630  -0.599  -0.551  -0.538  -0.524  -0.506  -0.478  -0.464
 -0.437  -0.416  -0.412  -0.399  -0.383  -0.380  -0.367  -0.344
 -0.332  -0.332  -0.328  -0.312  -0.307  -0.283  -0.273  -0.265
 -0.241  -0.208  -0.189  -0.147
 -- Virtual --
 -0.074  -0.006   0.009   0.018   0.028   0.038   0.049   0.059
  0.069   0.073   0.083   0.089   0.095   0.105   0.108   0.118
  0.124   0.130   0.141   0.160   0.183   0.186   0.206   0.233
  0.256   0.269   0.279   0.294   0.304   0.311   0.315   0.327
  0.336   0.359   0.366   0.374   0.395   0.399   0.406   0.415
  0.417   0.431   0.438   0.443   0.451   0.452   0.478   0.479
  0.493   0.499   0.505   0.515   0.526   0.529   0.546   0.561
  0.570   0.578   0.600   0.607   0.615   0.620   0.620   0.627
  0.638   0.649   0.655   0.668   0.672   0.682   0.690   0.701
  0.707   0.711   0.728   0.737   0.748   0.771   0.782   0.787
  0.798   0.801   0.819   0.836   0.853   0.863   0.878   0.923
  0.944   0.965   0.998   1.023   1.062   1.117   1.124   1.140
  1.146   1.178   1.184   1.205   1.215   1.216   1.235   1.260
  1.268   1.275   1.277   1.313   1.315   1.334   1.364   1.388
  1.467   1.474   1.492   1.536   1.563   1.566   1.570   1.590
  1.616   1.620   1.632   1.652   1.664   1.669   1.697   1.708
  1.711   1.726   1.736   1.741   1.763   1.764   1.775   1.809
  1.810   1.836   1.857   1.885   1.886   1.903   1.912   1.917
  1.942   1.955   1.975   1.997   2.026   2.043   2.045   2.065
  2.084   2.088   2.089   2.106   2.112   2.125   2.149   2.155
  2.189   2.206   2.221   2.229   2.243   2.292   2.320   2.334
  2.338   2.384   2.401   2.476   2.514   2.552   2.554   2.565
  2.591   2.606   2.612   2.631   2.660   2.667   2.695   2.696
  2.728   2.756   2.769   2.839   2.866   2.898   2.941   2.958
  3.130   3.187   3.231   3.391   3.417   3.464
 --------------------------------------------------------------
 
 -----------------------------------------------------------------
                    Cartesian Multipole Moments
 -----------------------------------------------------------------
    Charge (ESU x 10^10)
                 0.0000
    Dipole Moment (Debye)
         X       1.4017      Y      -1.3433      Z       0.0033
       Tot       1.9415
    Quadrupole Moments (Debye-Ang)
        XX     -80.4408     XY       6.8960     YY     -75.5599
        XZ       0.0025     YZ       0.0022     ZZ     -94.3834
    Octapole Moments (Debye-Ang^2)
       XXX      47.8535    XXY      15.6112    XYY      17.4012
       YYY     -30.5691    XXZ       0.0220    XYZ      -0.0056
       YYZ       0.0263    XZZ       0.6907    YZZ      -5.4859
       ZZZ       0.0210
    Hexadecapole Moments (Debye-Ang^3)
      XXXX   -3182.7481   XXXY     106.5600   XXYY    -646.1409
      XYYY      53.2216   YYYY    -904.6993   XXXZ      -0.0484
      XXYZ       0.0456   XYYZ      -0.0152   YYYZ       0.1038
      XXZZ    -661.5506   XYZZ      19.0420   YYZZ    -193.8142
      XZZZ      -0.0668   YZZZ       0.1228   ZZZZ    -133.1425
 -----------------------------------------------------------------
 Calculating analytic gradient of the SCF energy
 Gradient of AOints
            1           2           3           4           5           6
    1  -8.9672664  -2.4067435 -13.4784341  -9.5840096  -2.7375365  -1.0753882
    2 -10.5613650  -8.5164100  -0.2220423   7.9377987  12.5493219  13.5948388
    3   0.0443537  -0.0071487   0.0082095  -0.0027266  -0.0463171  -0.0098197
            7           8           9          10          11          12
    1   1.5640761   4.3987191   0.7648132   5.1369563  10.7552010   9.6246783
    2   9.3685181   6.9393995   9.4385850  10.2012011   6.6988118  -6.9357024
    3  -0.0022652   0.0139386   0.0023705  -0.0022869   0.0019785  -0.0032303
           13          14          15          16          17          18
    1   8.0666045   3.4324925   0.2466820   0.2412492  -0.5873128  -6.0697463
    2 -12.2160493 -20.5927513  -4.3685098  -4.3653088 -10.0652890 -10.8805760
    3  -0.0025713  -0.0051083   4.7757678  -4.7815250   0.0742165  -0.0526882
           19          20          21          22          23          24
    1  -7.1134866  -3.7789900   0.0259823   0.0232440   6.2743104   5.2439050
    2  -1.2112271   6.3509413   4.4147441   4.4166974   2.8418773  -4.8175040
    3  -0.0014257  -0.0028745   5.3397166  -5.3381404  -0.0009948  -0.0014290
 Gradient of SCF Energy
            1           2           3           4           5           6
    1   0.0004991   0.0000215  -0.0007159   0.0006112  -0.0010222   0.0006066
    2  -0.0003164   0.0005546   0.0007125  -0.0004373  -0.0006045   0.0001904
    3  -0.0001176   0.0000171   0.0000244  -0.0000397   0.0000646   0.0000196
            7           8           9          10          11          12
    1  -0.0000796  -0.0005793   0.0005512  -0.0000101   0.0001543  -0.0000495
    2  -0.0005186  -0.0002867  -0.0000703  -0.0009873  -0.0001362  -0.0000370
    3  -0.0000066  -0.0000448  -0.0000179   0.0000281  -0.0000181   0.0000154
           13          14          15          16          17          18
    1  -0.0002234  -0.0000651   0.0000790   0.0000722   0.0001449   0.0001649
    2   0.0007896   0.0007783  -0.0002055  -0.0001956  -0.0000715   0.0005640
    3  -0.0000115   0.0000704  -0.0001470   0.0001347  -0.0000986   0.0001262
           19          20          21          22          23          24
    1   0.0001105  -0.0001232   0.0000791   0.0000866  -0.0001974  -0.0001155
    2  -0.0001404  -0.0001887   0.0002303   0.0002234  -0.0000005   0.0001535
    3   0.0000142  -0.0000074  -0.0001973   0.0001949  -0.0000020  -0.0000011
 Max gradient component =       1.022E-03
 RMS gradient           =       3.390E-04
 Gradient time:  CPU 89.09 s  wall 91.52 s
 Geometry Optimization Parameters
   NAtoms,    NIC,     NZ,  NCons,   NDum,   NFix, NCnnct, MaxDiis
       24     199       0       0       0       0       0       0

 Cartesian Hessian Update
 Hessian Updated using BFGS Update


** GEOMETRY OPTIMIZATION IN DELOCALIZED INTERNAL COORDINATES **
   Searching for a Minimum

   Optimization Cycle:   4

                       Coordinates (Angstroms)
     ATOM              X           Y           Z
    1  N           3.155406    0.989803   -0.001534
    2  H           3.372459    1.985239   -0.000475
    3  C           4.098165   -0.032571   -0.000330
    4  C           3.459837   -1.278296    0.000936
    5  C           2.064999   -0.979672    0.001739
    6  N           0.802615   -1.553948    0.000914
    7  H           0.594363   -2.551680    0.001089
    8  C          -0.138264   -0.532935   -0.001040
    9  C          -1.584583   -0.557149   -0.000481
   10  C          -2.619647   -1.658420   -0.000264
   11  C          -3.926050   -0.891046   -0.000015
   12  C          -3.663937    0.454450    0.000108
   13  C          -2.221272    0.683313   -0.000138
   14  Si         -0.878657    2.016975   -0.000103
   15  H          -0.900590    2.907259   -1.216013
   16  H          -0.898815    2.905700    1.216942
   17  C           0.502259    0.741175   -0.001810
   18  C           1.890621    0.432794    0.000414
   19  H           5.170503    0.195787   -0.000135
   20  H           3.959122   -2.253813    0.001370
   21  H          -2.523073   -2.322594   -0.891158
   22  H          -2.522634   -2.322834    0.890403
   23  H          -4.916950   -1.367181    0.000179
   24  H          -4.426124    1.248842    0.000326
   Point Group: c1    Number of degrees of freedom:  66


   Energy is   -823.699885757

 Hessian Updated using BFGS Update

 66 Hessian modes will be used to form the next step
  Hessian Eigenvalues:
     0.006974    0.009113    0.011534    0.013250    0.014082    0.016527
     0.017172    0.017901    0.018779    0.018808    0.019803    0.020493
     0.022067    0.023483    0.024034    0.024659    0.026133    0.046430
     0.054654    0.057962    0.072769    0.073493    0.082310    0.088528
     0.098898    0.145850    0.159999    0.160000    0.160011    0.160237
     0.160471    0.175251    0.175680    0.204165    0.206894    0.221965
     0.223935    0.228714    0.241454    0.244645    0.246865    0.249390
     0.265920    0.286232    0.305734    0.343417    0.347797    0.349040
     0.359415    0.359521    0.360124    0.362446    0.377740    0.381677
     0.401615    0.414403    0.437192    0.464401    0.468590    0.479663
     0.484885    0.506475    0.533001    0.536115    0.551459    0.597262

 Minimum Search - Taking Simple RFO Step
 Searching for Lamda that Minimizes Along All modes
 Value Taken    Lamda =  -0.00002091
 Step Taken.  Stepsize is  0.015240

                             Maximum     Tolerance    Cnvgd?
         Gradient           0.000807      0.000300      NO
         Displacement       0.006478      0.001200      NO
         Energy change     -0.000143      0.000001      NO


 New Cartesian Coordinates Obtained by Inverse Iteration

 Displacement from previous Coordinates is:  0.018471
 Writing REM_CC_EA           24
 ----------------------------------------------------
       Standard Nuclear Orientation (Angstroms)
    I     Atom         X            Y            Z
 ----------------------------------------------------
    1      N       3.155567     0.988825    -0.000772
    2      H       3.372994     1.983816     0.000447
    3      C       4.099712    -0.032974    -0.000393
    4      C       3.460739    -1.278233     0.000965
    5      C       2.066447    -0.979492     0.001396
    6      N       0.803252    -1.553576     0.000468
    7      H       0.594629    -2.550894     0.000689
    8      C      -0.137455    -0.533209    -0.000916
    9      C      -1.584678    -0.558528    -0.000249
   10      C      -2.620967    -1.657838    -0.000209
   11      C      -3.926723    -0.889938     0.000271
   12      C      -3.663202     0.455069     0.000097
   13      C      -2.220389     0.681773    -0.000125
   14      Si     -0.878774     2.015316    -0.000460
   15      H      -0.903083     2.908523    -1.214368
   16      H      -0.901118     2.907165     1.214464
   17      C       0.502457     0.741138    -0.001768
   18      C       1.890965     0.432116     0.000326
   19      H       5.171427     0.197817    -0.000419
   20      H       3.961365    -2.252928     0.001392
   21      H      -2.526059    -2.324252    -0.889743
   22      H      -2.525626    -2.324635     0.888986
   23      H      -4.917375    -1.366013     0.000605
   24      H      -4.424348     1.250148     0.000238
 ----------------------------------------------------
 Molecular Point Group                 C1    NOp =  1
 Largest Abelian Subgroup              C1    NOp =  1
 Nuclear Repulsion Energy =   900.5360686421 hartrees
 There are       52 alpha and       52 beta electrons
 Applying Cartesian multipole field
    Component          Value
    ---------          -----
     (2,0,0)        1.00000E-11
     (0,2,0)        2.00000E-11
     (0,0,2)       -3.00000E-10
 Nucleus-field energy     =     0.0000000319 hartrees
 Requested basis set is non-standard
 There are 116 shells and 250 basis functions
 A cutoff of  1.0D-11 yielded   5410 shell pairs
 There are  24570 function pairs ( 27305 Cartesian)
Evaluating contribution to one-electron hamiltonian from nuclear
 Smallest overlap matrix eigenvalue = 3.18E-04
 Multipole matrices computed through 2nd order
 Guess MOs from SCF MO coefficient file
Reading MOs from coefficient file
Reading MOs from coefficient file
 A restricted Kohn-Sham SCF calculation will be
 performed using Pulay DIIS extrapolation
 Exchange:  Becke88      Correlation:  Perdew '86
 Using SG-1 standard quadrature grid
 SCF converges when DIIS error is below 1.0E-08
 Maximum number of SCF iterations = 100
 Requested basis set is non-standard
 There are 116 shells and 250 basis functions
 A cutoff of  1.0D-11 yielded   5410 shell pairs
 There are  24570 function pairs ( 27305 Cartesian)
 ---------------------------------------
  Cycle       Energy         DIIS Error
 ---------------------------------------
    1    -823.7014753691      5.85E-05
    2    -823.6998951397      1.26E-05
    3    -823.6998900068      2.62E-05
    4    -823.6998962845      5.40E-06
    5    -823.6998965254      1.72E-06
    6    -823.6998965457      8.08E-07
    7    -823.6998965520      1.89E-07
    8    -823.6998965549      1.03E-07
    9    -823.6998965568      3.25E-08
   10    -823.6998965543      7.72E-09 Convergence criterion met
 ---------------------------------------
 One-Electron    Energy = -2911.4862918823
 Total Coulomb   Energy =  1285.3005314343
 Alpha Exchange  Energy =     0.0000000000
 Beta  Exchange  Energy =     0.0000000000
 DFT   Exchange  Energy =   -94.1579554019
 DFT Correlation Energy =    -3.8922493784
 Nuclear Repu.   Energy =   900.5360686740
 Nuclear Attr.   Energy = -3727.6283147928
 Kinetic         Energy =   816.1420229105
 SCF time:  CPU 274.40 s  wall 295.89 s
 Final Alpha MO Eigenvalues
            1           2           3           4           5           6
    1 -65.4487426 -14.0625005 -14.0581294  -9.9445150  -9.9384663  -9.9329793
            7           8           9          10          11          12
    1  -9.9315572  -9.9297943  -9.9231104  -9.9114732  -9.9072731  -9.9067339
           13          14          15          16          17          18
    1  -9.8946744  -9.8930897  -5.0574272  -3.4720615  -3.4719842  -3.4715324
           19          20          21          22          23          24
    1  -0.8968704  -0.8653135  -0.7744567  -0.7031538  -0.6913521  -0.6616713
           25          26          27          28          29          30
    1  -0.6300436  -0.5990738  -0.5507457  -0.5381324  -0.5237395  -0.5056084
           31          32          33          34          35          36
    1  -0.4783621  -0.4638605  -0.4375206  -0.4162863  -0.4120963  -0.3993242
           37          38          39          40          41          42
    1  -0.3833913  -0.3800816  -0.3667094  -0.3441161  -0.3325948  -0.3315903
           43          44          45          46          47          48
    1  -0.3279456  -0.3122201  -0.3066807  -0.2835071  -0.2729724  -0.2648757
           49          50          51          52          53          54
    1  -0.2413560  -0.2081486  -0.1891161  -0.1469319  -0.0739374  -0.0056503
           55          56          57
    1   0.0085294   0.0181716   0.0279665
 Analysis of SCF Wavefunction
 
 --------------------------------------------------------------
                    Orbital Energies (a.u.)
 --------------------------------------------------------------
 
 Alpha MOs
 -- Occupied --
[...]
                                             deloc 229:-0.129 0.025 0.000 0.131
                                             deloc 240: 0.043 0.094 0.026 0.106
                                             deloc 239: 0.043 0.094-0.026 0.106
                                             deloc  51:-0.101-0.017 0.000 0.103
                                             deloc  11:-0.082 0.025 0.000 0.086
                                             deloc 126:-0.076-0.030 0.000 0.082
                                             deloc 144:-0.042-0.030 0.000 0.051
                                             deloc 134: 0.047 0.012 0.000 0.048
                                             deloc 109: 0.043 0.018 0.000 0.047

  20. BD ( 1) C10- C11      28.18011.687 0.00130.507   28.21411.687 0.00130.539
                                             deloc 235: 0.085 0.109 0.000 0.138
                                             deloc 241: 0.038 0.129 0.000 0.134
                                             deloc 245: 0.039-0.126 0.000 0.132
                                             deloc 232:-0.091-0.026 0.000 0.094
                                             deloc 239:-0.011-0.034-0.060 0.070
                                             deloc 240:-0.011-0.034 0.060 0.070
                                             deloc 115: 0.052 0.043 0.000 0.067
                                             deloc 243:-0.052-0.039 0.000 0.065
                                             deloc 143:-0.007 0.061 0.000 0.062
                                             deloc 236:-0.042-0.020 0.000 0.047
                                             deloc 244: 0.009-0.041 0.000 0.042
                                             deloc 203:-0.004 0.012 0.018 0.022
                                             deloc 207:-0.004 0.012-0.018 0.022
                                             deloc 118:-0.014-0.015 0.000 0.021

  21. BD ( 1) C10- H21      21.73218.267 6.08729.035   21.67619.005 6.38529.527
                                             deloc 237:-0.199-0.425-0.137 0.489
                                             deloc 242: 0.309-0.330-0.123 0.468
                                             deloc 235: 0.066 0.056-0.008 0.087
                                             deloc 238:-0.070 0.031-0.009 0.077
                                             deloc 240: 0.007-0.053 0.044 0.069
                                             deloc 117: 0.049 0.035-0.003 0.061
                                             deloc 134:-0.049 0.012-0.006 0.051
                                             deloc  22:-0.006 0.046-0.004 0.046
                                             deloc  16:-0.023-0.022-0.007 0.033
                                             deloc 236:-0.019-0.022 0.011 0.031
                                             deloc  24: 0.027 0.009-0.009 0.030
                                             deloc 241: 0.024-0.013 0.007 0.028
                                             deloc  19:-0.022 0.007-0.009 0.025
                                             deloc  11:-0.022-0.008-0.003 0.023

  22. BD ( 1) C10- H22      21.73218.266-6.08429.033   21.67619.006-6.38229.527
                                             deloc 237:-0.200-0.426 0.137 0.490
                                             deloc 242: 0.309-0.330 0.123 0.469
                                             deloc 235: 0.066 0.056 0.008 0.087
                                             deloc 238:-0.070 0.031 0.009 0.077
                                             deloc 239: 0.007-0.053-0.044 0.069
                                             deloc 117: 0.050 0.035 0.003 0.061
                                             deloc 134:-0.049 0.012 0.006 0.051
                                             deloc  21:-0.006 0.044 0.004 0.044
                                             deloc  16:-0.023-0.022 0.007 0.033
                                             deloc 236:-0.019-0.022-0.011 0.031
                                             deloc  24: 0.027 0.009 0.009 0.030
                                             deloc 241: 0.024-0.013-0.007 0.028
                                             deloc  19:-0.022 0.007 0.009 0.025
                                             deloc  11:-0.022-0.008 0.003 0.023

  23. BD ( 1) C11- C12      33.237 1.654 0.00133.278   33.213 1.681 0.00133.255
                                             deloc 244: 0.207 0.023 0.000 0.208
                                             deloc 238: 0.144-0.076 0.000 0.163
                                             deloc 243:-0.140-0.037 0.000 0.144
                                             deloc 245:-0.113 0.082 0.000 0.140
                                             deloc 246:-0.095-0.053 0.000 0.109
                                             deloc 151: 0.041 0.026 0.000 0.049
                                             deloc 125: 0.025-0.031 0.000 0.040
                                             deloc 235:-0.028 0.028 0.000 0.039
                                             deloc 236:-0.023-0.012 0.000 0.026

  24. BD ( 2) C11- C12      30.656 1.972 0.00130.719   33.067 2.239 0.00133.143
                                             deloc 237:-1.337-0.207 0.000 1.353
                                             deloc 234:-0.393-0.050 0.000 0.396
                                             deloc 242:-0.036-0.188 0.000 0.192
                                             deloc 239:-0.093 0.107-0.030 0.145
                                             deloc 240:-0.093 0.107 0.030 0.145
                                             deloc  52:-0.113 0.030 0.000 0.117
                                             deloc 223:-0.104 0.001 0.000 0.104
                                             deloc  16:-0.096-0.036 0.000 0.103
                                             deloc 153: 0.068-0.016 0.000 0.070
                                             deloc 229:-0.060 0.004 0.000 0.060
                                             deloc 126: 0.053-0.014 0.000 0.055
                                             deloc  51:-0.045-0.008 0.000 0.045
                                             deloc 155:-0.037-0.001 0.000 0.037
                                             deloc  19: 0.011-0.035 0.000 0.036
                                             deloc   5:-0.034-0.003 0.000 0.034
                                             deloc  11:-0.026 0.005 0.000 0.026
                                             deloc 212: 0.024 0.004 0.000 0.024
                                             deloc 216: 0.019-0.010 0.000 0.022
                                             deloc 127:-0.017 0.013 0.000 0.021

  25. BD ( 1) C11- H23      40.69111.173 0.00142.197   40.85011.158 0.00142.347
                                             deloc 241:-0.003 0.185 0.000 0.185
                                             deloc 244:-0.034-0.101 0.000 0.106
                                             deloc 235:-0.079 0.027 0.000 0.084
                                             deloc 238: 0.048-0.041 0.000 0.063
                                             deloc 245:-0.025-0.034 0.000 0.042
                                             deloc 246:-0.025-0.020 0.000 0.032
                                             deloc 142:-0.004 0.025 0.000 0.026
                                             deloc 124: 0.009-0.022 0.000 0.024

  26. BD ( 1) C12- C13      25.148-6.184 0.00025.897   25.087-6.141 0.00025.828
                                             deloc 236: 0.086-0.238 0.000 0.254
                                             deloc 241:-0.018-0.187 0.000 0.188
                                             deloc 246: 0.106 0.150 0.000 0.183
                                             deloc 243: 0.069 0.089 0.000 0.112
                                             deloc 245:-0.063 0.091 0.000 0.111
                                             deloc 232:-0.048 0.036 0.000 0.060
                                             deloc 238: 0.024 0.040 0.000 0.047
                                             deloc 235:-0.030 0.034 0.000 0.045
                                             deloc 135:-0.015-0.037 0.000 0.040
                                             deloc 231:-0.036 0.017 0.000 0.039
                                             deloc 116: 0.017-0.033 0.000 0.037
                                             deloc 133:-0.015-0.025 0.000 0.030
                                             deloc 249:-0.019-0.011 0.000 0.022

  27. BD ( 1) C12- H24      36.777-9.669-0.00138.027   36.849-9.755-0.00138.118
                                             deloc 241:-0.069-0.165 0.000 0.179
                                             deloc 238: 0.002 0.136 0.000 0.136
                                             deloc 244: 0.121 0.043 0.000 0.128
                                             deloc 236:-0.079-0.001 0.000 0.079
                                             deloc 243:-0.011 0.042 0.000 0.043
                                             deloc 133:-0.011-0.027 0.000 0.029
                                             deloc 151: 0.019 0.010 0.000 0.022

  28. BD ( 1) C13-Si14      17.525******-0.00120.283   17.700******-0.00120.457
                                             deloc 236: 0.142-0.192 0.000 0.239
                                             deloc 244:-0.216 0.017 0.000 0.216
                                             deloc 247: 0.033-0.096 0.176 0.203
                                             deloc 248: 0.032-0.096-0.176 0.203
                                             deloc 235:-0.008 0.160 0.000 0.160
                                             deloc 249:-0.101 0.114 0.000 0.152
                                             deloc 241: 0.087 0.031 0.000 0.092
                                             deloc 250:-0.084 0.019 0.000 0.087
                                             deloc 245: 0.040 0.030 0.000 0.050
                                             deloc 232:-0.001 0.045 0.000 0.045
                                             deloc 233:-0.039 0.018 0.000 0.043
                                             deloc 115: 0.028-0.030 0.000 0.041
                                             deloc 142:-0.036-0.017 0.000 0.040
                                             deloc 243: 0.026 0.027 0.000 0.037
                                             deloc 118:-0.019-0.026 0.000 0.033
                                             deloc 180:-0.020 0.019 0.000 0.027
                                             deloc 116: 0.007-0.021 0.000 0.022

  29. BD ( 1)Si14- H15       7.706******10.94128.468    7.720******11.19329.023
                                             deloc 249:-0.349 0.214 0.094 0.420
                                             deloc 246: 0.331 0.224 0.091 0.410
                                             deloc 248: 0.007-0.286-0.284 0.403
                                             deloc 237: 0.087 0.150-0.066 0.185
                                             deloc 234:-0.065 0.095-0.046 0.124
                                             deloc 178: 0.040-0.006 0.005 0.040
                                             deloc  11:-0.023 0.025-0.009 0.035
                                             deloc 153:-0.034-0.008 0.004 0.035
                                             deloc 179:-0.012 0.018 0.013 0.025
                                             deloc  16:-0.017 0.011-0.013 0.024
                                             deloc 173: 0.001-0.014-0.018 0.023
                                             deloc  30: 0.000-0.020 0.000 0.020

  30. BD ( 1)Si14- H16       7.691************28.434    7.704************29.010
                                             deloc 249:-0.345 0.211-0.093 0.415
                                             deloc 247: 0.007-0.289 0.286 0.407
                                             deloc 246: 0.327 0.221-0.091 0.405
                                             deloc 237: 0.089 0.152 0.067 0.189
                                             deloc 234:-0.067 0.097 0.047 0.127
                                             deloc 178: 0.040-0.006-0.005 0.041
                                             deloc  11:-0.024 0.025 0.010 0.036
                                             deloc 153:-0.034-0.007-0.005 0.035
                                             deloc 179:-0.011 0.018-0.013 0.025
                                             deloc  16:-0.017 0.011 0.013 0.024
                                             deloc 169: 0.001-0.014 0.018 0.023
                                             deloc  24: 0.013 0.015 0.005 0.020

  31. BD ( 1)Si14- C17      -2.962****** 0.01411.002   -3.200****** 0.01311.186
                                             deloc 250: 0.336 0.016 0.000 0.336
                                             deloc 233:-0.147-0.200 0.000 0.249
                                             deloc 248:-0.027-0.098-0.178 0.205
                                             deloc 247:-0.027-0.099 0.178 0.205
                                             deloc 231: 0.013 0.164 0.000 0.164
                                             deloc 246: 0.093 0.112 0.000 0.146
                                             deloc 228:-0.108 0.050 0.000 0.119
                                             deloc 244: 0.080 0.021 0.000 0.083
                                             deloc 221:-0.046 0.038 0.000 0.060
                                             deloc 230:-0.007 0.054 0.000 0.055
                                             deloc 106:-0.032-0.027 0.000 0.041
                                             deloc 232: 0.000 0.037 0.000 0.037
                                             deloc 236: 0.027 0.015 0.000 0.031
                                             deloc 186: 0.021-0.016 0.000 0.026
                                             deloc 152: 0.016 0.017 0.000 0.024
                                             deloc 108: 0.010-0.020 0.001 0.023

  32. BD ( 1) C17- C18      ******-6.974 0.00612.834   ******-6.887 0.00612.753
                                             deloc 228: 0.002-0.292 0.000 0.292
                                             deloc 233:-0.089-0.249 0.000 0.265
                                             deloc 221: 0.190 0.151 0.000 0.242
                                             deloc 249:-0.144 0.183 0.000 0.233
                                             deloc 231: 0.046 0.040 0.000 0.061
                                             deloc 220:-0.054-0.010 0.000 0.055
                                             deloc 232: 0.035 0.035 0.000 0.050
                                             deloc 227:-0.019 0.030 0.000 0.035
                                             deloc 235: 0.023 0.012 0.000 0.026
                                             deloc 219:-0.026 0.000 0.000 0.026
                                             deloc 225:-0.008 0.024 0.000 0.026
                                             deloc 246: 0.019-0.010 0.000 0.021
                                             deloc 107:-0.016-0.013 0.000 0.021

  33. CR ( 1) N 1           ******-8.451 0.01228.263   ******-8.446 0.01228.259

  34. CR ( 1) C 3           ****** 0.277 0.00135.033   ****** 0.290 0.00135.022

  35. CR ( 1) C 4           ******10.916-0.00531.525   ******10.898-0.00531.513

  36. CR ( 1) C 5           ****** 8.369-0.01019.543   ****** 8.358-0.01019.544

  37. CR ( 1) N 6           -6.86813.276-0.00614.948   -6.86913.270-0.00614.942

  38. CR ( 1) C 8            1.170 4.560 0.006 4.708    1.176 4.550 0.006 4.699

  39. CR ( 1) C 9           13.542 4.775 0.00214.360   13.542 4.761 0.00214.354

  40. CR ( 1) C10           22.40414.163 0.00126.506   22.40314.154 0.00126.500

  41. CR ( 1) C11           33.558 7.600 0.00134.408   33.552 7.583 0.00134.398

  42. CR ( 1) C12           31.301-3.887 0.00031.542   31.294-3.871 0.00031.532

  43. CR ( 1) C13           18.975-5.813 0.00019.845   18.980-5.792 0.00019.844

  44. CR ( 1)Si14            7.509****** 0.00118.784    7.509****** 0.00118.785

  45. CR ( 2)Si14            7.507****** 0.00118.743    7.508****** 0.00118.746

  46. CR ( 3)Si14            7.508****** 0.00118.775    7.509****** 0.00118.778

  47. CR ( 4)Si14            7.509****** 0.00118.783    7.509****** 0.00118.782

  48. CR ( 5)Si14            7.509****** 0.00118.787    7.509****** 0.00118.790

  49. CR ( 1) C17           -4.299-6.323 0.011 7.646   -4.309-6.302 0.011 7.635

  50. CR ( 1) C18           ******-3.691-0.00116.583   ******-3.683-0.00116.571

  51. LP ( 1) N 1           ******-2.877 0.01826.436   ******-8.823 0.03328.444
                                             deloc 223:-1.517 3.704-0.007 4.003
                                             deloc 229: 2.170 2.241-0.007 3.119
                                             deloc  63:-0.011-0.068 0.000 0.069
                                             deloc  69:-0.051 0.033 0.000 0.061
                                             deloc  11: 0.005-0.054 0.000 0.054
                                             deloc 190: 0.039 0.029 0.000 0.049
                                             deloc 234: 0.040 0.019 0.000 0.045
                                             deloc  77:-0.026 0.016 0.000 0.031
                                             deloc 237: 0.027 0.005 0.000 0.027
                                             deloc  67: 0.022-0.012 0.000 0.025
                                             deloc  78:-0.002 0.022 0.000 0.022
                                             deloc   5: 0.008 0.019 0.000 0.020

  52. LP ( 1) N 6           -6.935 7.329-0.00210.090   -6.78113.648-0.00715.240
                                             deloc 234: 1.612-3.968 0.005 4.282
                                             deloc 229:-1.616-1.680 0.000 2.331
                                             deloc  51:-0.234-0.250 0.000 0.343
                                             deloc 223:-0.190-0.072 0.000 0.203
                                             deloc 247: 0.058-0.134 0.011 0.146
                                             deloc 248: 0.058-0.134-0.011 0.146
                                             deloc 237: 0.103-0.044 0.000 0.113
                                             deloc 110: 0.059-0.058 0.000 0.082
                                             deloc 103: 0.014 0.065 0.000 0.066
                                             deloc  11:-0.009 0.060 0.000 0.061
                                             deloc  88:-0.040-0.021 0.000 0.046
                                             deloc  16:-0.011-0.036 0.000 0.037
                                             deloc 160: 0.012-0.034 0.000 0.036
                                             deloc 109:-0.020 0.027 0.001 0.034
                                             deloc  86: 0.027-0.007 0.000 0.028
                                             deloc 178: 0.022-0.008 0.000 0.023
                            ----------------------------------------------------
         Net dipole moment   4.658-6.664 0.037 8.131    1.701-5.478 0.041 5.736
 Delocalization correction                              2.958-1.187-0.004 3.187
                            ----------------------------------------------------
       Total dipole moment   4.658-6.664 0.037 8.131    4.658-6.664 0.037 8.131

 *******************************************************************************
 Total job time:  2489.40s(wall), 2339.48s(cpu) 
 Wed Jun 30 01:35:05 2010

        *************************************************************
        *                                                           *
        *  Thank you very much for using Q-Chem.  Have a nice day.  *
        *                                                           *
        *************************************************************


