 Entering Gaussian System, Link 0=g03
 Input=/scratch/tomc.27030/cr-smif-q.com
 Output=/scratch/tomc.27030/cr-smif-q.log
 Initial command:
 /usr/local/g03/l1.exe /scratch/tomc.27030/Gau-9941.inp -scrdir=/scratch/tomc.27030/
 Entering Link 1 = /usr/local/g03/l1.exe PID=      9942.
  
 Copyright (c) 1988,1990,1992,1993,1995,1998,2003,2004, Gaussian, Inc.
                  All Rights Reserved.
  
 This is the Gaussian(R) 03 program.  It is based on the
 the Gaussian(R) 98 system (copyright 1998, Gaussian, Inc.),
 the Gaussian(R) 94 system (copyright 1995, Gaussian, Inc.),
 the Gaussian 92(TM) system (copyright 1992, Gaussian, Inc.),
 the Gaussian 90(TM) system (copyright 1990, Gaussian, Inc.),
 the Gaussian 88(TM) system (copyright 1988, Gaussian, Inc.),
 the Gaussian 86(TM) system (copyright 1986, Carnegie Mellon
 University), and the Gaussian 82(TM) system (copyright 1983,
 Carnegie Mellon University). Gaussian is a federally registered
 trademark of Gaussian, Inc.
  
 This software contains proprietary and confidential information,
 including trade secrets, belonging to Gaussian, Inc.
  
 This software is provided under written license and may be
 used, copied, transmitted, or stored only in accord with that
 written license.
  
 The following legend is applicable only to US Government
 contracts under FAR:
  
                    RESTRICTED RIGHTS LEGEND
  
 Use, reproduction and disclosure by the US Government is
 subject to restrictions as set forth in subparagraphs (a)
 and (c) of the Commercial Computer Software - Restricted
 Rights clause in FAR 52.227-19.
  
 Gaussian, Inc.
 340 Quinnipiac St., Bldg. 40, Wallingford CT 06492
  
  
 ---------------------------------------------------------------
 Warning -- This program may not be used in any manner that
 competes with the business of Gaussian, Inc. or will provide
 assistance to any competitor of Gaussian, Inc.  The licensee
 of this program is prohibited from giving any competitor of
 Gaussian, Inc. access to this program.  By using this program,
 the user acknowledges that Gaussian, Inc. is engaged in the
 business of creating and licensing software in the field of
 computational chemistry and represents and warrants to the
 licensee that it is not a competitor of Gaussian, Inc. and that
 it will not use this program in any manner prohibited above.
 ---------------------------------------------------------------
  

 Cite this work as:
 Gaussian 03, Revision C.02,
 M. J. Frisch, G. W. Trucks, H. B. Schlegel, G. E. Scuseria, 
 M. A. Robb, J. R. Cheeseman, J. A. Montgomery, Jr., T. Vreven, 
 K. N. Kudin, J. C. Burant, J. M. Millam, S. S. Iyengar, J. Tomasi, 
 V. Barone, B. Mennucci, M. Cossi, G. Scalmani, N. Rega, 
 G. A. Petersson, H. Nakatsuji, M. Hada, M. Ehara, K. Toyota, 
 R. Fukuda, J. Hasegawa, M. Ishida, T. Nakajima, Y. Honda, O. Kitao, 
 H. Nakai, M. Klene, X. Li, J. E. Knox, H. P. Hratchian, J. B. Cross, 
 C. Adamo, J. Jaramillo, R. Gomperts, R. E. Stratmann, O. Yazyev, 
 A. J. Austin, R. Cammi, C. Pomelli, J. W. Ochterski, P. Y. Ayala, 
 K. Morokuma, G. A. Voth, P. Salvador, J. J. Dannenberg, 
 V. G. Zakrzewski, S. Dapprich, A. D. Daniels, M. C. Strain, 
 O. Farkas, D. K. Malick, A. D. Rabuck, K. Raghavachari, 
 J. B. Foresman, J. V. Ortiz, Q. Cui, A. G. Baboul, S. Clifford, 
 J. Cioslowski, B. B. Stefanov, G. Liu, A. Liashenko, P. Piskorz, 
 I. Komaromi, R. L. Martin, D. J. Fox, T. Keith, M. A. Al-Laham, 
 C. Y. Peng, A. Nanayakkara, M. Challacombe, P. M. W. Gill, 
 B. Johnson, W. Chen, M. W. Wong, C. Gonzalez, and J. A. Pople, 
 Gaussian, Inc., Wallingford CT, 2004.
 
 ******************************************
 Gaussian 03:  AM64L-G03RevC.02 12-Jun-2004
                 2-Apr-2008 
 ******************************************
 %chk=cr-smif-quintet.chk
 %mem=55MW
 %nproc=2
 Will use up to    2 processors via shared memory.
 Default route: int(fmmnatoms=300)
 ----------------------------------------------
 # NoSymm opt freq=noraman b3lyp/6-31g(d) 5d 7f
 ----------------------------------------------
 1/14=-1,18=20,26=3,38=1/1,3;
 2/9=110,15=1,17=6,18=5,40=1/2;
 3/5=1,6=6,7=1,8=11,11=2,16=1,25=1,30=1,74=-5,106=300/1,2,3;
 4//1;
 5/5=2,38=5/2;
 6/7=2,8=2,9=2,10=2,28=1/1;
 7/30=1/1,2,3,16;
 1/14=-1,18=20/3(1);
 99//99;
 2/9=110,15=1/2;
 3/5=1,6=6,7=1,8=11,11=2,16=1,25=1,30=1,74=-5,106=300/1,2,3;
 4/5=5,16=3/1;
 5/5=2,38=5/2;
 7/30=1/1,2,3,16;
 1/14=-1,18=20/3(-5);
 2/9=110,15=1/2;
 6/7=2,8=2,9=2,10=2,19=2,28=1/1;
 99/9=1/99;
 ----------------
 SMIF)2Cr-quintet
 ----------------
 Symbolic Z-matrix:
 Charge =  0 Multiplicity = 5
 24                   0     0.        0.        0. 
 7                    0     1.4008   -1.4008   -0.2767 
 6                    0     3.29788  -3.29788  -1.0526 
 6                    0     1.63399  -1.63399  -1.61537 
 6                    0     2.09528  -2.09528   0.63453 
 6                    0     3.05143  -3.05143   0.30524 
 6                    0     2.59261  -2.59261  -2.01315 
 1                    0     1.86646  -1.86646   1.6708 
 1                    0     3.58246  -3.58246   1.08768 
 1                    0     2.76252  -2.76252  -3.07227 
 1                    0     4.03672  -4.03672  -1.35258 
 7                    0    -1.4008   -1.4008    0.2767 
 6                    0    -3.29788  -3.29788   1.0526 
 6                    0    -1.63399  -1.63399   1.61537 
 6                    0    -2.09528  -2.09528  -0.63453 
 6                    0    -3.05143  -3.05143  -0.30524 
 6                    0    -2.59261  -2.59261   2.01315 
 1                    0    -1.86646  -1.86646  -1.6708 
 1                    0    -3.58246  -3.58246  -1.08768 
 1                    0    -2.76252  -2.76252   3.07227 
 1                    0    -4.03672  -4.03672   1.35258 
 7                    0    -1.4008    1.4008   -0.2767 
 6                    0    -3.29788   3.29788  -1.0526 
 6                    0    -2.09528   2.09528   0.63453 
 6                    0    -1.63399   1.63399  -1.61537 
 6                    0    -2.59261   2.59261  -2.01315 
 6                    0    -3.05143   3.05143   0.30524 
 1                    0    -1.86646   1.86646   1.6708 
 1                    0    -2.76252   2.76252  -3.07227 
 1                    0    -3.58246   3.58246   1.08768 
 1                    0    -4.03672   4.03672  -1.35258 
 7                    0     1.4008    1.4008    0.2767 
 6                    0     3.29788   3.29788   1.0526 
 6                    0     1.63399   1.63399   1.61537 
 6                    0     2.09528   2.09528  -0.63453 
 6                    0     3.05143   3.05143  -0.30524 
 6                    0     2.59261   2.59261   2.01315 
 1                    0     1.86646   1.86646  -1.6708 
 1                    0     3.58246   3.58246  -1.08768 
 1                    0     2.76252   2.76252   3.07227 
 1                    0     4.03672   4.03672   1.35258 
 7                    0     0.        0.        1.92769 
 7                    0     0.        0.       -1.92769 
 6                    0     0.84997  -0.84997  -2.5098 
 1                    0     0.93672  -0.93672  -3.59102 
 6                    0    -0.84997   0.84997  -2.5098 
 1                    0    -0.93672   0.93672  -3.59102 
 6                    0     0.84997   0.84997   2.5098 
 1                    0     0.93672   0.93672   3.59102 
 6                    0    -0.84997  -0.84997   2.5098 
 1                    0    -0.93672  -0.93672   3.59102 
 

 GradGradGradGradGradGradGradGradGradGradGradGradGradGradGradGradGradGrad
 Berny optimization.
 Initialization pass.
                           ----------------------------
                           !    Initial Parameters    !
                           ! (Angstroms and Degrees)  !
 --------------------------                            --------------------------
 ! Name  Definition              Value          Derivative Info.                !
 --------------------------------------------------------------------------------
 ! R1    R(1,2)                  2.0003         estimate D2E/DX2                !
 ! R2    R(1,12)                 2.0003         estimate D2E/DX2                !
 ! R3    R(1,22)                 2.0003         estimate D2E/DX2                !
 ! R4    R(1,32)                 2.0003         estimate D2E/DX2                !
 ! R5    R(1,42)                 1.9277         estimate D2E/DX2                !
 ! R6    R(1,43)                 1.9277         estimate D2E/DX2                !
 ! R7    R(2,4)                  1.3787         estimate D2E/DX2                !
 ! R8    R(2,5)                  1.3398         estimate D2E/DX2                !
 ! R9    R(3,6)                  1.4019         estimate D2E/DX2                !
 ! R10   R(3,7)                  1.3847         estimate D2E/DX2                !
 ! R11   R(3,11)                 1.0871         estimate D2E/DX2                !
 ! R12   R(4,7)                  1.4129         estimate D2E/DX2                !
 ! R13   R(4,44)                 1.4246         estimate D2E/DX2                !
 ! R14   R(5,6)                  1.3917         estimate D2E/DX2                !
 ! R15   R(5,8)                  1.0856         estimate D2E/DX2                !
 ! R16   R(6,9)                  1.0845         estimate D2E/DX2                !
 ! R17   R(7,10)                 1.086          estimate D2E/DX2                !
 ! R18   R(12,14)                1.3787         estimate D2E/DX2                !
 ! R19   R(12,15)                1.3398         estimate D2E/DX2                !
 ! R20   R(13,16)                1.4019         estimate D2E/DX2                !
 ! R21   R(13,17)                1.3847         estimate D2E/DX2                !
 ! R22   R(13,21)                1.0871         estimate D2E/DX2                !
 ! R23   R(14,17)                1.4129         estimate D2E/DX2                !
 ! R24   R(14,50)                1.4246         estimate D2E/DX2                !
 ! R25   R(15,16)                1.3917         estimate D2E/DX2                !
 ! R26   R(15,18)                1.0856         estimate D2E/DX2                !
 ! R27   R(16,19)                1.0845         estimate D2E/DX2                !
 ! R28   R(17,20)                1.086          estimate D2E/DX2                !
 ! R29   R(22,24)                1.3398         estimate D2E/DX2                !
 ! R30   R(22,25)                1.3787         estimate D2E/DX2                !
 ! R31   R(23,26)                1.3847         estimate D2E/DX2                !
 ! R32   R(23,27)                1.4019         estimate D2E/DX2                !
 ! R33   R(23,31)                1.0871         estimate D2E/DX2                !
 ! R34   R(24,27)                1.3917         estimate D2E/DX2                !
 ! R35   R(24,28)                1.0856         estimate D2E/DX2                !
 ! R36   R(25,26)                1.4129         estimate D2E/DX2                !
 ! R37   R(25,46)                1.4246         estimate D2E/DX2                !
 ! R38   R(26,29)                1.086          estimate D2E/DX2                !
 ! R39   R(27,30)                1.0845         estimate D2E/DX2                !
 ! R40   R(32,34)                1.3787         estimate D2E/DX2                !
 ! R41   R(32,35)                1.3398         estimate D2E/DX2                !
 ! R42   R(33,36)                1.4019         estimate D2E/DX2                !
 ! R43   R(33,37)                1.3847         estimate D2E/DX2                !
 ! R44   R(33,41)                1.0871         estimate D2E/DX2                !
 ! R45   R(34,37)                1.4129         estimate D2E/DX2                !
 ! R46   R(34,48)                1.4246         estimate D2E/DX2                !
 ! R47   R(35,36)                1.3917         estimate D2E/DX2                !
 ! R48   R(35,38)                1.0856         estimate D2E/DX2                !
 ! R49   R(36,39)                1.0845         estimate D2E/DX2                !
 ! R50   R(37,40)                1.086          estimate D2E/DX2                !
 ! R51   R(42,48)                1.3356         estimate D2E/DX2                !
 ! R52   R(42,50)                1.3356         estimate D2E/DX2                !
 ! R53   R(43,44)                1.3356         estimate D2E/DX2                !
 ! R54   R(43,46)                1.3356         estimate D2E/DX2                !
 ! R55   R(44,45)                1.0882         estimate D2E/DX2                !
 ! R56   R(46,47)                1.0882         estimate D2E/DX2                !
 ! R57   R(48,49)                1.0882         estimate D2E/DX2                !
 ! R58   R(50,51)                1.0882         estimate D2E/DX2                !
 ! A1    A(2,1,12)              91.0964         estimate D2E/DX2                !
 ! A2    A(2,1,22)             164.0977         estimate D2E/DX2                !
 ! A3    A(2,1,32)              91.0964         estimate D2E/DX2                !
 ! A4    A(2,1,42)              97.9512         estimate D2E/DX2                !
 ! A5    A(2,1,43)              82.0488         estimate D2E/DX2                !
 ! A6    A(12,1,22)             91.0964         estimate D2E/DX2                !
 ! A7    A(12,1,32)            164.0977         estimate D2E/DX2                !
 ! A8    A(12,1,42)             82.0488         estimate D2E/DX2                !
 ! A9    A(12,1,43)             97.9512         estimate D2E/DX2                !
 ! A10   A(22,1,32)             91.0964         estimate D2E/DX2                !
 ! A11   A(22,1,42)             97.9512         estimate D2E/DX2                !
 ! A12   A(22,1,43)             82.0488         estimate D2E/DX2                !
 ! A13   A(32,1,42)             82.0488         estimate D2E/DX2                !
 ! A14   A(32,1,43)             97.9512         estimate D2E/DX2                !
 ! A15   A(1,2,4)              111.7898         estimate D2E/DX2                !
 ! A16   A(1,2,5)              129.1939         estimate D2E/DX2                !
 ! A17   A(4,2,5)              119.0163         estimate D2E/DX2                !
 ! A18   A(6,3,7)              119.5266         estimate D2E/DX2                !
 ! A19   A(6,3,11)             120.414          estimate D2E/DX2                !
 ! A20   A(7,3,11)             120.0594         estimate D2E/DX2                !
 ! A21   A(2,4,7)              120.1911         estimate D2E/DX2                !
 ! A22   A(2,4,44)             115.0539         estimate D2E/DX2                !
 ! A23   A(7,4,44)             124.755          estimate D2E/DX2                !
 ! A24   A(2,5,6)              123.4587         estimate D2E/DX2                !
 ! A25   A(2,5,8)              115.5128         estimate D2E/DX2                !
 ! A26   A(6,5,8)              121.0285         estimate D2E/DX2                !
 ! A27   A(3,6,5)              118.0819         estimate D2E/DX2                !
 ! A28   A(3,6,9)              121.7795         estimate D2E/DX2                !
 ! A29   A(5,6,9)              120.1386         estimate D2E/DX2                !
 ! A30   A(3,7,4)              119.7254         estimate D2E/DX2                !
 ! A31   A(3,7,10)             121.1395         estimate D2E/DX2                !
 ! A32   A(4,7,10)             119.1351         estimate D2E/DX2                !
 ! A33   A(1,12,14)            111.7898         estimate D2E/DX2                !
 ! A34   A(1,12,15)            129.1939         estimate D2E/DX2                !
 ! A35   A(14,12,15)           119.0163         estimate D2E/DX2                !
 ! A36   A(16,13,17)           119.5266         estimate D2E/DX2                !
 ! A37   A(16,13,21)           120.414          estimate D2E/DX2                !
 ! A38   A(17,13,21)           120.0594         estimate D2E/DX2                !
 ! A39   A(12,14,17)           120.1911         estimate D2E/DX2                !
 ! A40   A(12,14,50)           115.0539         estimate D2E/DX2                !
 ! A41   A(17,14,50)           124.755          estimate D2E/DX2                !
 ! A42   A(12,15,16)           123.4587         estimate D2E/DX2                !
 ! A43   A(12,15,18)           115.5128         estimate D2E/DX2                !
 ! A44   A(16,15,18)           121.0285         estimate D2E/DX2                !
 ! A45   A(13,16,15)           118.0819         estimate D2E/DX2                !
 ! A46   A(13,16,19)           121.7795         estimate D2E/DX2                !
 ! A47   A(15,16,19)           120.1386         estimate D2E/DX2                !
 ! A48   A(13,17,14)           119.7254         estimate D2E/DX2                !
 ! A49   A(13,17,20)           121.1395         estimate D2E/DX2                !
 ! A50   A(14,17,20)           119.1351         estimate D2E/DX2                !
 ! A51   A(1,22,24)            129.1939         estimate D2E/DX2                !
 ! A52   A(1,22,25)            111.7898         estimate D2E/DX2                !
 ! A53   A(24,22,25)           119.0163         estimate D2E/DX2                !
 ! A54   A(26,23,27)           119.5266         estimate D2E/DX2                !
 ! A55   A(26,23,31)           120.0594         estimate D2E/DX2                !
 ! A56   A(27,23,31)           120.414          estimate D2E/DX2                !
 ! A57   A(22,24,27)           123.4587         estimate D2E/DX2                !
 ! A58   A(22,24,28)           115.5128         estimate D2E/DX2                !
 ! A59   A(27,24,28)           121.0285         estimate D2E/DX2                !
 ! A60   A(22,25,26)           120.1911         estimate D2E/DX2                !
 ! A61   A(22,25,46)           115.0539         estimate D2E/DX2                !
 ! A62   A(26,25,46)           124.755          estimate D2E/DX2                !
 ! A63   A(23,26,25)           119.7254         estimate D2E/DX2                !
 ! A64   A(23,26,29)           121.1395         estimate D2E/DX2                !
 ! A65   A(25,26,29)           119.1351         estimate D2E/DX2                !
 ! A66   A(23,27,24)           118.0819         estimate D2E/DX2                !
 ! A67   A(23,27,30)           121.7795         estimate D2E/DX2                !
 ! A68   A(24,27,30)           120.1386         estimate D2E/DX2                !
 ! A69   A(1,32,34)            111.7898         estimate D2E/DX2                !
 ! A70   A(1,32,35)            129.1939         estimate D2E/DX2                !
 ! A71   A(34,32,35)           119.0163         estimate D2E/DX2                !
 ! A72   A(36,33,37)           119.5266         estimate D2E/DX2                !
 ! A73   A(36,33,41)           120.414          estimate D2E/DX2                !
 ! A74   A(37,33,41)           120.0594         estimate D2E/DX2                !
 ! A75   A(32,34,37)           120.1911         estimate D2E/DX2                !
 ! A76   A(32,34,48)           115.0539         estimate D2E/DX2                !
 ! A77   A(37,34,48)           124.755          estimate D2E/DX2                !
 ! A78   A(32,35,36)           123.4587         estimate D2E/DX2                !
 ! A79   A(32,35,38)           115.5128         estimate D2E/DX2                !
 ! A80   A(36,35,38)           121.0285         estimate D2E/DX2                !
 ! A81   A(33,36,35)           118.0819         estimate D2E/DX2                !
 ! A82   A(33,36,39)           121.7795         estimate D2E/DX2                !
 ! A83   A(35,36,39)           120.1386         estimate D2E/DX2                !
 ! A84   A(33,37,34)           119.7254         estimate D2E/DX2                !
 ! A85   A(33,37,40)           121.1395         estimate D2E/DX2                !
 ! A86   A(34,37,40)           119.1351         estimate D2E/DX2                !
 ! A87   A(1,42,48)            115.8393         estimate D2E/DX2                !
 ! A88   A(1,42,50)            115.8393         estimate D2E/DX2                !
 ! A89   A(48,42,50)           128.3214         estimate D2E/DX2                !
 ! A90   A(1,43,44)            115.8393         estimate D2E/DX2                !
 ! A91   A(1,43,46)            115.8393         estimate D2E/DX2                !
 ! A92   A(44,43,46)           128.3214         estimate D2E/DX2                !
 ! A93   A(4,44,43)            115.2681         estimate D2E/DX2                !
 ! A94   A(4,44,45)            122.4192         estimate D2E/DX2                !
 ! A95   A(43,44,45)           122.3127         estimate D2E/DX2                !
 ! A96   A(25,46,43)           115.2681         estimate D2E/DX2                !
 ! A97   A(25,46,47)           122.4192         estimate D2E/DX2                !
 ! A98   A(43,46,47)           122.3127         estimate D2E/DX2                !
 ! A99   A(34,48,42)           115.2681         estimate D2E/DX2                !
 ! A100  A(34,48,49)           122.4192         estimate D2E/DX2                !
 ! A101  A(42,48,49)           122.3127         estimate D2E/DX2                !
 ! A102  A(14,50,42)           115.2681         estimate D2E/DX2                !
 ! A103  A(14,50,51)           122.4192         estimate D2E/DX2                !
 ! A104  A(42,50,51)           122.3127         estimate D2E/DX2                !
 ! A105  L(42,1,43,2,-2)       180.0            estimate D2E/DX2                !
 ! D1    D(12,1,2,4)            97.8757         estimate D2E/DX2                !
 ! D2    D(12,1,2,5)           -82.1243         estimate D2E/DX2                !
 ! D3    D(22,1,2,4)             0.0            estimate D2E/DX2                !
 ! D4    D(22,1,2,5)           180.0            estimate D2E/DX2                !
 ! D5    D(32,1,2,4)           -97.8757         estimate D2E/DX2                !
 ! D6    D(32,1,2,5)            82.1243         estimate D2E/DX2                !
 ! D7    D(42,1,2,4)           180.0            estimate D2E/DX2                !
 ! D8    D(42,1,2,5)             0.0            estimate D2E/DX2                !
 ! D9    D(43,1,2,4)             0.0            estimate D2E/DX2                !
 ! D10   D(43,1,2,5)           180.0            estimate D2E/DX2                !
 ! D11   D(2,1,12,14)           97.8757         estimate D2E/DX2                !
 ! D12   D(2,1,12,15)          -82.1243         estimate D2E/DX2                !
 ! D13   D(22,1,12,14)         -97.8757         estimate D2E/DX2                !
 ! D14   D(22,1,12,15)          82.1243         estimate D2E/DX2                !
 ! D15   D(32,1,12,14)           0.0            estimate D2E/DX2                !
 ! D16   D(32,1,12,15)         180.0            estimate D2E/DX2                !
 ! D17   D(42,1,12,14)           0.0            estimate D2E/DX2                !
 ! D18   D(42,1,12,15)         180.0            estimate D2E/DX2                !
 ! D19   D(43,1,12,14)         180.0            estimate D2E/DX2                !
 ! D20   D(43,1,12,15)           0.0            estimate D2E/DX2                !
 ! D21   D(2,1,22,24)          180.0            estimate D2E/DX2                !
 ! D22   D(2,1,22,25)            0.0            estimate D2E/DX2                !
 ! D23   D(12,1,22,24)          82.1243         estimate D2E/DX2                !
 ! D24   D(12,1,22,25)         -97.8757         estimate D2E/DX2                !
 ! D25   D(32,1,22,24)         -82.1243         estimate D2E/DX2                !
 ! D26   D(32,1,22,25)          97.8757         estimate D2E/DX2                !
 ! D27   D(42,1,22,24)           0.0            estimate D2E/DX2                !
 ! D28   D(42,1,22,25)         180.0            estimate D2E/DX2                !
 ! D29   D(43,1,22,24)         180.0            estimate D2E/DX2                !
 ! D30   D(43,1,22,25)           0.0            estimate D2E/DX2                !
 ! D31   D(2,1,32,34)          -97.8757         estimate D2E/DX2                !
 ! D32   D(2,1,32,35)           82.1243         estimate D2E/DX2                !
 ! D33   D(12,1,32,34)           0.0            estimate D2E/DX2                !
 ! D34   D(12,1,32,35)         180.0            estimate D2E/DX2                !
 ! D35   D(22,1,32,34)          97.8757         estimate D2E/DX2                !
 ! D36   D(22,1,32,35)         -82.1243         estimate D2E/DX2                !
 ! D37   D(42,1,32,34)           0.0            estimate D2E/DX2                !
 ! D38   D(42,1,32,35)         180.0            estimate D2E/DX2                !
 ! D39   D(43,1,32,34)         180.0            estimate D2E/DX2                !
 ! D40   D(43,1,32,35)           0.0            estimate D2E/DX2                !
 ! D41   D(2,1,42,48)           90.0            estimate D2E/DX2                !
 ! D42   D(2,1,42,50)          -90.0            estimate D2E/DX2                !
 ! D43   D(12,1,42,48)         180.0            estimate D2E/DX2                !
 ! D44   D(12,1,42,50)           0.0            estimate D2E/DX2                !
 ! D45   D(22,1,42,48)         -90.0            estimate D2E/DX2                !
 ! D46   D(22,1,42,50)          90.0            estimate D2E/DX2                !
 ! D47   D(32,1,42,48)           0.0            estimate D2E/DX2                !
 ! D48   D(32,1,42,50)         180.0            estimate D2E/DX2                !
 ! D49   D(48,42,43,44)         90.0            estimate D2E/DX2                !
 ! D50   D(48,42,43,46)        -90.0            estimate D2E/DX2                !
 ! D51   D(50,42,43,44)        -90.0            estimate D2E/DX2                !
 ! D52   D(50,42,43,46)         90.0            estimate D2E/DX2                !
 ! D53   D(2,1,43,44)            0.0            estimate D2E/DX2                !
 ! D54   D(2,1,43,46)          180.0            estimate D2E/DX2                !
 ! D55   D(12,1,43,44)         -90.0            estimate D2E/DX2                !
 ! D56   D(12,1,43,46)          90.0            estimate D2E/DX2                !
 ! D57   D(22,1,43,44)         180.0            estimate D2E/DX2                !
 ! D58   D(22,1,43,46)           0.0            estimate D2E/DX2                !
 ! D59   D(32,1,43,44)          90.0            estimate D2E/DX2                !
 ! D60   D(32,1,43,46)         -90.0            estimate D2E/DX2                !
 ! D61   D(1,2,4,7)            180.0            estimate D2E/DX2                !
 ! D62   D(1,2,4,44)             0.0            estimate D2E/DX2                !
 ! D63   D(5,2,4,7)              0.0            estimate D2E/DX2                !
 ! D64   D(5,2,4,44)           180.0            estimate D2E/DX2                !
 ! D65   D(1,2,5,6)            180.0            estimate D2E/DX2                !
 ! D66   D(1,2,5,8)              0.0            estimate D2E/DX2                !
 ! D67   D(4,2,5,6)              0.0            estimate D2E/DX2                !
 ! D68   D(4,2,5,8)            180.0            estimate D2E/DX2                !
 ! D69   D(7,3,6,5)              0.0            estimate D2E/DX2                !
 ! D70   D(7,3,6,9)            180.0            estimate D2E/DX2                !
 ! D71   D(11,3,6,5)           180.0            estimate D2E/DX2                !
 ! D72   D(11,3,6,9)             0.0            estimate D2E/DX2                !
 ! D73   D(6,3,7,4)              0.0            estimate D2E/DX2                !
 ! D74   D(6,3,7,10)           180.0            estimate D2E/DX2                !
 ! D75   D(11,3,7,4)           180.0            estimate D2E/DX2                !
 ! D76   D(11,3,7,10)            0.0            estimate D2E/DX2                !
 ! D77   D(2,4,7,3)              0.0            estimate D2E/DX2                !
 ! D78   D(2,4,7,10)           180.0            estimate D2E/DX2                !
 ! D79   D(44,4,7,3)           180.0            estimate D2E/DX2                !
 ! D80   D(44,4,7,10)            0.0            estimate D2E/DX2                !
 ! D81   D(2,4,44,43)            0.0            estimate D2E/DX2                !
 ! D82   D(2,4,44,45)          180.0            estimate D2E/DX2                !
 ! D83   D(7,4,44,43)          180.0            estimate D2E/DX2                !
 ! D84   D(7,4,44,45)            0.0            estimate D2E/DX2                !
 ! D85   D(2,5,6,3)              0.0            estimate D2E/DX2                !
 ! D86   D(2,5,6,9)            180.0            estimate D2E/DX2                !
 ! D87   D(8,5,6,3)            180.0            estimate D2E/DX2                !
 ! D88   D(8,5,6,9)              0.0            estimate D2E/DX2                !
 ! D89   D(1,12,14,17)         180.0            estimate D2E/DX2                !
 ! D90   D(1,12,14,50)           0.0            estimate D2E/DX2                !
 ! D91   D(15,12,14,17)          0.0            estimate D2E/DX2                !
 ! D92   D(15,12,14,50)        180.0            estimate D2E/DX2                !
 ! D93   D(1,12,15,16)         180.0            estimate D2E/DX2                !
 ! D94   D(1,12,15,18)           0.0            estimate D2E/DX2                !
 ! D95   D(14,12,15,16)          0.0            estimate D2E/DX2                !
 ! D96   D(14,12,15,18)        180.0            estimate D2E/DX2                !
 ! D97   D(17,13,16,15)          0.0            estimate D2E/DX2                !
 ! D98   D(17,13,16,19)        180.0            estimate D2E/DX2                !
 ! D99   D(21,13,16,15)        180.0            estimate D2E/DX2                !
 ! D100  D(21,13,16,19)          0.0            estimate D2E/DX2                !
 ! D101  D(16,13,17,14)          0.0            estimate D2E/DX2                !
 ! D102  D(16,13,17,20)        180.0            estimate D2E/DX2                !
 ! D103  D(21,13,17,14)        180.0            estimate D2E/DX2                !
 ! D104  D(21,13,17,20)          0.0            estimate D2E/DX2                !
 ! D105  D(12,14,17,13)          0.0            estimate D2E/DX2                !
 ! D106  D(12,14,17,20)        180.0            estimate D2E/DX2                !
 ! D107  D(50,14,17,13)        180.0            estimate D2E/DX2                !
 ! D108  D(50,14,17,20)          0.0            estimate D2E/DX2                !
 ! D109  D(12,14,50,42)          0.0            estimate D2E/DX2                !
 ! D110  D(12,14,50,51)        180.0            estimate D2E/DX2                !
 ! D111  D(17,14,50,42)        180.0            estimate D2E/DX2                !
 ! D112  D(17,14,50,51)          0.0            estimate D2E/DX2                !
 ! D113  D(12,15,16,13)          0.0            estimate D2E/DX2                !
 ! D114  D(12,15,16,19)        180.0            estimate D2E/DX2                !
 ! D115  D(18,15,16,13)        180.0            estimate D2E/DX2                !
 ! D116  D(18,15,16,19)          0.0            estimate D2E/DX2                !
 ! D117  D(1,22,24,27)         180.0            estimate D2E/DX2                !
 ! D118  D(1,22,24,28)           0.0            estimate D2E/DX2                !
 ! D119  D(25,22,24,27)          0.0            estimate D2E/DX2                !
 ! D120  D(25,22,24,28)        180.0            estimate D2E/DX2                !
 ! D121  D(1,22,25,26)         180.0            estimate D2E/DX2                !
 ! D122  D(1,22,25,46)           0.0            estimate D2E/DX2                !
 ! D123  D(24,22,25,26)          0.0            estimate D2E/DX2                !
 ! D124  D(24,22,25,46)        180.0            estimate D2E/DX2                !
 ! D125  D(27,23,26,25)          0.0            estimate D2E/DX2                !
 ! D126  D(27,23,26,29)        180.0            estimate D2E/DX2                !
 ! D127  D(31,23,26,25)        180.0            estimate D2E/DX2                !
 ! D128  D(31,23,26,29)          0.0            estimate D2E/DX2                !
 ! D129  D(26,23,27,24)          0.0            estimate D2E/DX2                !
 ! D130  D(26,23,27,30)        180.0            estimate D2E/DX2                !
 ! D131  D(31,23,27,24)        180.0            estimate D2E/DX2                !
 ! D132  D(31,23,27,30)          0.0            estimate D2E/DX2                !
 ! D133  D(22,24,27,23)          0.0            estimate D2E/DX2                !
 ! D134  D(22,24,27,30)        180.0            estimate D2E/DX2                !
 ! D135  D(28,24,27,23)        180.0            estimate D2E/DX2                !
 ! D136  D(28,24,27,30)          0.0            estimate D2E/DX2                !
 ! D137  D(22,25,26,23)          0.0            estimate D2E/DX2                !
 ! D138  D(22,25,26,29)        180.0            estimate D2E/DX2                !
 ! D139  D(46,25,26,23)        180.0            estimate D2E/DX2                !
 ! D140  D(46,25,26,29)          0.0            estimate D2E/DX2                !
 ! D141  D(22,25,46,43)          0.0            estimate D2E/DX2                !
 ! D142  D(22,25,46,47)        180.0            estimate D2E/DX2                !
 ! D143  D(26,25,46,43)        180.0            estimate D2E/DX2                !
 ! D144  D(26,25,46,47)          0.0            estimate D2E/DX2                !
 ! D145  D(1,32,34,37)         180.0            estimate D2E/DX2                !
 ! D146  D(1,32,34,48)           0.0            estimate D2E/DX2                !
 ! D147  D(35,32,34,37)          0.0            estimate D2E/DX2                !
 ! D148  D(35,32,34,48)        180.0            estimate D2E/DX2                !
 ! D149  D(1,32,35,36)         180.0            estimate D2E/DX2                !
 ! D150  D(1,32,35,38)           0.0            estimate D2E/DX2                !
 ! D151  D(34,32,35,36)          0.0            estimate D2E/DX2                !
 ! D152  D(34,32,35,38)        180.0            estimate D2E/DX2                !
 ! D153  D(37,33,36,35)          0.0            estimate D2E/DX2                !
 ! D154  D(37,33,36,39)        180.0            estimate D2E/DX2                !
 ! D155  D(41,33,36,35)        180.0            estimate D2E/DX2                !
 ! D156  D(41,33,36,39)          0.0            estimate D2E/DX2                !
 ! D157  D(36,33,37,34)          0.0            estimate D2E/DX2                !
 ! D158  D(36,33,37,40)        180.0            estimate D2E/DX2                !
 ! D159  D(41,33,37,34)        180.0            estimate D2E/DX2                !
 ! D160  D(41,33,37,40)          0.0            estimate D2E/DX2                !
 ! D161  D(32,34,37,33)          0.0            estimate D2E/DX2                !
 ! D162  D(32,34,37,40)        180.0            estimate D2E/DX2                !
 ! D163  D(48,34,37,33)        180.0            estimate D2E/DX2                !
 ! D164  D(48,34,37,40)          0.0            estimate D2E/DX2                !
 ! D165  D(32,34,48,42)          0.0            estimate D2E/DX2                !
 ! D166  D(32,34,48,49)        180.0            estimate D2E/DX2                !
 ! D167  D(37,34,48,42)        180.0            estimate D2E/DX2                !
 ! D168  D(37,34,48,49)          0.0            estimate D2E/DX2                !
 ! D169  D(32,35,36,33)          0.0            estimate D2E/DX2                !
 ! D170  D(32,35,36,39)        180.0            estimate D2E/DX2                !
 ! D171  D(38,35,36,33)        180.0            estimate D2E/DX2                !
 ! D172  D(38,35,36,39)          0.0            estimate D2E/DX2                !
 ! D173  D(1,42,48,34)           0.0            estimate D2E/DX2                !
 ! D174  D(1,42,48,49)         180.0            estimate D2E/DX2                !
 ! D175  D(50,42,48,34)        180.0            estimate D2E/DX2                !
 ! D176  D(50,42,48,49)          0.0            estimate D2E/DX2                !
 ! D177  D(1,42,50,14)           0.0            estimate D2E/DX2                !
 ! D178  D(1,42,50,51)         180.0            estimate D2E/DX2                !
 ! D179  D(48,42,50,14)        180.0            estimate D2E/DX2                !
 ! D180  D(48,42,50,51)          0.0            estimate D2E/DX2                !
 ! D181  D(1,43,44,4)            0.0            estimate D2E/DX2                !
 ! D182  D(1,43,44,45)         180.0            estimate D2E/DX2                !
 ! D183  D(46,43,44,4)         180.0            estimate D2E/DX2                !
 ! D184  D(46,43,44,45)          0.0            estimate D2E/DX2                !
 ! D185  D(1,43,46,25)           0.0            estimate D2E/DX2                !
 ! D186  D(1,43,46,47)         180.0            estimate D2E/DX2                !
 ! D187  D(44,43,46,25)        180.0            estimate D2E/DX2                !
 ! D188  D(44,43,46,47)          0.0            estimate D2E/DX2                !
 --------------------------------------------------------------------------------
 Trust Radius=3.00D-01 FncErr=1.00D-07 GrdErr=1.00D-06
 Number of steps in this run= 306 maximum allowed number of steps= 306.
 GradGradGradGradGradGradGradGradGradGradGradGradGradGradGradGradGradGrad

 Symmetry turned off by external request.
 Stoichiometry    C24H20CrN6(5)
 Framework group  D2D[O(Cr),C2(N.N),2SGD(C12H10N2)]
 Deg. of freedom    25
 Full point group                 D2D     NOp   8
                         Z-Matrix orientation:                         
 ---------------------------------------------------------------------
 Center     Atomic     Atomic              Coordinates (Angstroms)
 Number     Number      Type              X           Y           Z
 ---------------------------------------------------------------------
    1         24             0        0.000000    0.000000    0.000000
    2          7             0        1.400804   -1.400804   -0.276695
    3          6             0        3.297875   -3.297875   -1.052599
    4          6             0        1.633985   -1.633985   -1.615371
    5          6             0        2.095283   -2.095283    0.634530
    6          6             0        3.051433   -3.051433    0.305241
    7          6             0        2.592613   -2.592613   -2.013154
    8          1             0        1.866463   -1.866463    1.670803
    9          1             0        3.582457   -3.582457    1.087676
   10          1             0        2.762523   -2.762523   -3.072274
   11          1             0        4.036715   -4.036715   -1.352577
   12          7             0       -1.400804   -1.400804    0.276695
   13          6             0       -3.297875   -3.297875    1.052599
   14          6             0       -1.633985   -1.633985    1.615371
   15          6             0       -2.095283   -2.095283   -0.634530
   16          6             0       -3.051433   -3.051433   -0.305241
   17          6             0       -2.592613   -2.592613    2.013154
   18          1             0       -1.866463   -1.866463   -1.670803
   19          1             0       -3.582457   -3.582457   -1.087676
   20          1             0       -2.762523   -2.762523    3.072274
   21          1             0       -4.036715   -4.036715    1.352577
   22          7             0       -1.400804    1.400804   -0.276695
   23          6             0       -3.297875    3.297875   -1.052599
   24          6             0       -2.095283    2.095283    0.634530
   25          6             0       -1.633985    1.633985   -1.615371
   26          6             0       -2.592613    2.592613   -2.013154
   27          6             0       -3.051433    3.051433    0.305241
   28          1             0       -1.866463    1.866463    1.670803
   29          1             0       -2.762523    2.762523   -3.072274
   30          1             0       -3.582457    3.582457    1.087676
   31          1             0       -4.036715    4.036715   -1.352577
   32          7             0        1.400804    1.400804    0.276695
   33          6             0        3.297875    3.297875    1.052599
   34          6             0        1.633985    1.633985    1.615371
   35          6             0        2.095283    2.095283   -0.634530
   36          6             0        3.051433    3.051433   -0.305241
   37          6             0        2.592613    2.592613    2.013154
   38          1             0        1.866463    1.866463   -1.670803
   39          1             0        3.582457    3.582457   -1.087676
   40          1             0        2.762523    2.762523    3.072274
   41          1             0        4.036715    4.036715    1.352577
   42          7             0        0.000000    0.000000    1.927691
   43          7             0        0.000000    0.000000   -1.927691
   44          6             0        0.849968   -0.849968   -2.509796
   45          1             0        0.936717   -0.936717   -3.591021
   46          6             0       -0.849968    0.849968   -2.509796
   47          1             0       -0.936717    0.936717   -3.591021
   48          6             0        0.849968    0.849968    2.509796
   49          1             0        0.936717    0.936717    3.591021
   50          6             0       -0.849968   -0.849968    2.509796
   51          1             0       -0.936717   -0.936717    3.591021
 ---------------------------------------------------------------------
 Rotational constants (GHZ):      0.1765955      0.1765955      0.1301937
 Standard basis: 6-31G(d) (5D, 7F)
 Integral buffers will be    131072 words long.
 Raffenetti 2 integral format.
 Two-electron integral symmetry is turned off.
   494 basis functions,  1024 primitive gaussians,   529 cartesian basis functions
   117 alpha electrons      113 beta electrons
       nuclear repulsion energy      3686.7832846046 Hartrees.
 NAtoms=   51 NActive=   51 NUniq=   51 SFac= 1.00D+00 NAtFMM=  300 Big=F
 One-electron integrals computed using PRISM.
 NBasis=   494 RedAO= T  NBF=   494
 NBsUse=   494 1.00D-06 NBFU=   494
 Harris functional with IExCor=  402 diagonalized for initial guess.
 ExpMin= 3.65D-02 ExpMax= 5.18D+04 ExpMxC= 7.78D+03 IAcc=3 IRadAn=         5 AccDes= 0.00D+00
 HarFok:  IExCor= 402 AccDes= 0.00D+00 IRadAn=         5 IDoV=1
 ScaDFX=  1.000000  1.000000  1.000000  1.000000
 <S**2> of initial guess= 6.0000
 Requested convergence on RMS density matrix=1.00D-08 within 128 cycles.
 Requested convergence on MAX density matrix=1.00D-06.
 Requested convergence on             energy=1.00D-06.
 No special actions if energy rises.
 EnCoef did   100 forward-backward iterations
 EnCoef did   100 forward-backward iterations
 EnCoef did     4 forward-backward iterations
 EnCoef did     2 forward-backward iterations
 EnCoef did    10 forward-backward iterations
 EnCoef did     6 forward-backward iterations
 Restarting incremental Fock formation.
 SCF Done:  E(UB+HF-LYP) =  -2299.56452727     A.U. after   29 cycles
             Convg  =    0.2757D-08             -V/T =  2.0041
             S**2   =   6.0187
 Annihilation of the first spin contaminant:
 S**2 before annihilation     6.0187,   after     6.0001

 **********************************************************************

            Population analysis using the SCF density.

 **********************************************************************

 Alpha  occ. eigenvalues -- -215.73068 -24.75609 -21.04375 -21.04337 -21.04296
 Alpha  occ. eigenvalues --  -14.33941 -14.33939 -14.33470 -14.33470 -14.33470
 Alpha  occ. eigenvalues --  -14.33468 -10.21393 -10.21392 -10.21391 -10.21391
 Alpha  occ. eigenvalues --  -10.21291 -10.21291 -10.21291 -10.21291 -10.18801
 Alpha  occ. eigenvalues --  -10.18800 -10.18800 -10.18800 -10.18657 -10.18657
 Alpha  occ. eigenvalues --  -10.18657 -10.18657 -10.17816 -10.17815 -10.17815
 Alpha  occ. eigenvalues --  -10.17815 -10.17073 -10.17073 -10.17072 -10.17072
 Alpha  occ. eigenvalues --   -2.94220  -1.89378  -1.88889  -1.88854  -0.96137
 Alpha  occ. eigenvalues --   -0.95095  -0.94023  -0.94017  -0.91519  -0.91449
 Alpha  occ. eigenvalues --   -0.79265  -0.79157  -0.79156  -0.79005  -0.78441
 Alpha  occ. eigenvalues --   -0.78439  -0.75581  -0.75562  -0.69607  -0.69603
 Alpha  occ. eigenvalues --   -0.64124  -0.63826  -0.62577  -0.62426  -0.62423
 Alpha  occ. eigenvalues --   -0.62363  -0.59663  -0.59660  -0.55935  -0.55876
 Alpha  occ. eigenvalues --   -0.53408  -0.51979  -0.50546  -0.50545  -0.50226
 Alpha  occ. eigenvalues --   -0.50225  -0.47392  -0.47125  -0.46286  -0.45782
 Alpha  occ. eigenvalues --   -0.45705  -0.45702  -0.44002  -0.44001  -0.43136
 Alpha  occ. eigenvalues --   -0.43109  -0.42210  -0.42208  -0.42187  -0.42101
 Alpha  occ. eigenvalues --   -0.40985  -0.40635  -0.40630  -0.39032  -0.39005
 Alpha  occ. eigenvalues --   -0.38651  -0.36750  -0.36517  -0.36513  -0.36492
 Alpha  occ. eigenvalues --   -0.35542  -0.35540  -0.34400  -0.33202  -0.32500
 Alpha  occ. eigenvalues --   -0.30807  -0.30076  -0.30050  -0.29442  -0.28556
 Alpha  occ. eigenvalues --   -0.27830  -0.27720  -0.27455  -0.27207  -0.25620
 Alpha  occ. eigenvalues --   -0.25617  -0.23742  -0.23543  -0.23087  -0.15555
 Alpha  occ. eigenvalues --   -0.15477  -0.08308
 Alpha virt. eigenvalues --   -0.05858  -0.01292  -0.01217  -0.00857  -0.00846
 Alpha virt. eigenvalues --    0.01336   0.02369   0.03109   0.03265   0.06146
 Alpha virt. eigenvalues --    0.06155   0.07298   0.08197   0.09447   0.09460
 Alpha virt. eigenvalues --    0.11114   0.12049   0.12052   0.12145   0.13206
 Alpha virt. eigenvalues --    0.14382   0.14382   0.15238   0.15847   0.15945
 Alpha virt. eigenvalues --    0.15971   0.16294   0.16365   0.16543   0.17075
 Alpha virt. eigenvalues --    0.17087   0.17203   0.17559   0.18962   0.18964
 Alpha virt. eigenvalues --    0.19593   0.20227   0.20229   0.22152   0.22325
 Alpha virt. eigenvalues --    0.25019   0.25022   0.26524   0.26623   0.27767
 Alpha virt. eigenvalues --    0.29803   0.30060   0.30061   0.30121   0.30759
 Alpha virt. eigenvalues --    0.30764   0.31326   0.32271   0.33205   0.33515
 Alpha virt. eigenvalues --    0.33515   0.35328   0.37688   0.37693   0.38913
 Alpha virt. eigenvalues --    0.40317   0.43717   0.44443   0.45220   0.45227
 Alpha virt. eigenvalues --    0.46847   0.46859   0.47984   0.48772   0.48781
 Alpha virt. eigenvalues --    0.49899   0.50082   0.50084   0.50106   0.51495
 Alpha virt. eigenvalues --    0.52198   0.52333   0.52338   0.53603   0.54708
 Alpha virt. eigenvalues --    0.54722   0.55663   0.55666   0.57126   0.57129
 Alpha virt. eigenvalues --    0.57278   0.57464   0.58203   0.59638   0.59795
 Alpha virt. eigenvalues --    0.59800   0.60258   0.60260   0.60263   0.60928
 Alpha virt. eigenvalues --    0.60980   0.61382   0.61436   0.61614   0.61614
 Alpha virt. eigenvalues --    0.62653   0.62655   0.63022   0.63025   0.63169
 Alpha virt. eigenvalues --    0.63986   0.65000   0.65185   0.66077   0.66079
 Alpha virt. eigenvalues --    0.66345   0.66970   0.69689   0.69703   0.70970
 Alpha virt. eigenvalues --    0.72986   0.74128   0.75170   0.75178   0.76407
 Alpha virt. eigenvalues --    0.77420   0.78328   0.78328   0.79506   0.80398
 Alpha virt. eigenvalues --    0.80614   0.82021   0.82141   0.82146   0.83767
 Alpha virt. eigenvalues --    0.83773   0.84082   0.84220   0.84618   0.84753
 Alpha virt. eigenvalues --    0.85211   0.85688   0.85691   0.86076   0.86089
 Alpha virt. eigenvalues --    0.86455   0.87834   0.88058   0.88451   0.88454
 Alpha virt. eigenvalues --    0.89360   0.90909   0.90911   0.92634   0.93685
 Alpha virt. eigenvalues --    0.93716   0.93717   0.95854   0.96393   0.96432
 Alpha virt. eigenvalues --    0.98241   0.99095   0.99377   0.99382   1.00563
 Alpha virt. eigenvalues --    1.00579   1.00656   1.02305   1.02313   1.02718
 Alpha virt. eigenvalues --    1.02721   1.03507   1.05833   1.06809   1.07566
 Alpha virt. eigenvalues --    1.07569   1.07884   1.09638   1.11755   1.12793
 Alpha virt. eigenvalues --    1.13523   1.13525   1.14549   1.14817   1.17925
 Alpha virt. eigenvalues --    1.17925   1.18841   1.20449   1.20799   1.20804
 Alpha virt. eigenvalues --    1.21126   1.24612   1.25035   1.25126   1.25126
 Alpha virt. eigenvalues --    1.25130   1.26213   1.28075   1.28077   1.28111
 Alpha virt. eigenvalues --    1.29683   1.29688   1.31947   1.31951   1.32015
 Alpha virt. eigenvalues --    1.33406   1.33446   1.36517   1.38821   1.38996
 Alpha virt. eigenvalues --    1.39669   1.39701   1.39705   1.44318   1.44854
 Alpha virt. eigenvalues --    1.44858   1.45648   1.45733   1.45842   1.46931
 Alpha virt. eigenvalues --    1.46935   1.48039   1.48538   1.48538   1.48793
 Alpha virt. eigenvalues --    1.48857   1.50658   1.50662   1.50730   1.50785
 Alpha virt. eigenvalues --    1.52156   1.52156   1.53788   1.55058   1.55065
 Alpha virt. eigenvalues --    1.55848   1.56017   1.56399   1.56400   1.57196
 Alpha virt. eigenvalues --    1.64483   1.68467   1.73324   1.73510   1.73515
 Alpha virt. eigenvalues --    1.73762   1.76435   1.76595   1.80277   1.80283
 Alpha virt. eigenvalues --    1.80592   1.80748   1.81024   1.81032   1.83363
 Alpha virt. eigenvalues --    1.84974   1.86973   1.86973   1.88110   1.88114
 Alpha virt. eigenvalues --    1.91487   1.91953   1.91953   1.93221   1.93223
 Alpha virt. eigenvalues --    1.93379   1.93383   1.93435   1.94016   1.95236
 Alpha virt. eigenvalues --    1.96269   1.97484   1.97720   1.97846   1.97853
 Alpha virt. eigenvalues --    2.00387   2.00717   2.03572   2.03578   2.04530
 Alpha virt. eigenvalues --    2.07953   2.07954   2.08461   2.10901   2.11454
 Alpha virt. eigenvalues --    2.12105   2.12113   2.12717   2.17017   2.17019
 Alpha virt. eigenvalues --    2.17107   2.18661   2.18663   2.18693   2.18941
 Alpha virt. eigenvalues --    2.19510   2.20167   2.20496   2.21512   2.21517
 Alpha virt. eigenvalues --    2.21981   2.22475   2.22904   2.24938   2.24939
 Alpha virt. eigenvalues --    2.25253   2.29104   2.29711   2.29722   2.31406
 Alpha virt. eigenvalues --    2.31555   2.31555   2.32189   2.32197   2.33984
 Alpha virt. eigenvalues --    2.34764   2.36535   2.36538   2.37042   2.39078
 Alpha virt. eigenvalues --    2.42682   2.42687   2.42828   2.43845   2.43907
 Alpha virt. eigenvalues --    2.43912   2.46078   2.51868   2.54768   2.54773
 Alpha virt. eigenvalues --    2.54985   2.55816   2.55940   2.56050   2.56058
 Alpha virt. eigenvalues --    2.56581   2.63467   2.63468   2.64196   2.64542
 Alpha virt. eigenvalues --    2.68018   2.68210   2.68214   2.68303   2.69583
 Alpha virt. eigenvalues --    2.69755   2.70708   2.70712   2.71485   2.71990
 Alpha virt. eigenvalues --    2.71992   2.72020   2.77225   2.77226   2.77962
 Alpha virt. eigenvalues --    2.80442   2.81761   2.83646   2.83649   2.84790
 Alpha virt. eigenvalues --    2.85220   2.85227   2.85820   2.88817   2.89057
 Alpha virt. eigenvalues --    2.91024   2.92574   2.92577   2.99416   3.03834
 Alpha virt. eigenvalues --    3.04461   3.04464   3.09565   3.14832   3.23197
 Alpha virt. eigenvalues --    3.25346   3.25468   3.25469   3.42462   3.42463
 Alpha virt. eigenvalues --    3.45323   3.46738
  Beta  occ. eigenvalues -- -215.73015 -24.71280 -21.00733 -21.00722 -21.00659
  Beta  occ. eigenvalues --  -14.33808 -14.33806 -14.33413 -14.33413 -14.33413
  Beta  occ. eigenvalues --  -14.33411 -10.21287 -10.21285 -10.21285 -10.21285
  Beta  occ. eigenvalues --  -10.21280 -10.21280 -10.21280 -10.21280 -10.18720
  Beta  occ. eigenvalues --  -10.18720 -10.18719 -10.18719 -10.18582 -10.18582
  Beta  occ. eigenvalues --  -10.18582 -10.18582 -10.17832 -10.17832 -10.17832
  Beta  occ. eigenvalues --  -10.17832 -10.17006 -10.17006 -10.17006 -10.17006
  Beta  occ. eigenvalues --   -2.81710  -1.76093  -1.75780  -1.75639  -0.95840
  Beta  occ. eigenvalues --   -0.94803  -0.93808  -0.93805  -0.91217  -0.91149
  Beta  occ. eigenvalues --   -0.79086  -0.78962  -0.78960  -0.78828  -0.78200
  Beta  occ. eigenvalues --   -0.78200  -0.75385  -0.75368  -0.69416  -0.69415
  Beta  occ. eigenvalues --   -0.63808  -0.63523  -0.62501  -0.62303  -0.62303
  Beta  occ. eigenvalues --   -0.62289  -0.59471  -0.59469  -0.55680  -0.55656
  Beta  occ. eigenvalues --   -0.53250  -0.51891  -0.50480  -0.50472  -0.49994
  Beta  occ. eigenvalues --   -0.49993  -0.47244  -0.47014  -0.46155  -0.45691
  Beta  occ. eigenvalues --   -0.45585  -0.45584  -0.43854  -0.43853  -0.43059
  Beta  occ. eigenvalues --   -0.43048  -0.41859  -0.41725  -0.41686  -0.41122
  Beta  occ. eigenvalues --   -0.40653  -0.40433  -0.40427  -0.38816  -0.38774
  Beta  occ. eigenvalues --   -0.38103  -0.36546  -0.36413  -0.35812  -0.35805
  Beta  occ. eigenvalues --   -0.34986  -0.34977  -0.33629  -0.32733  -0.31668
  Beta  occ. eigenvalues --   -0.29768  -0.29688  -0.29206  -0.29116  -0.27826
  Beta  occ. eigenvalues --   -0.27155  -0.27057  -0.26754  -0.26695  -0.24293
  Beta  occ. eigenvalues --   -0.24290  -0.15582  -0.14578
  Beta virt. eigenvalues --   -0.06006  -0.05967  -0.04397  -0.00741  -0.00566
  Beta virt. eigenvalues --   -0.00562  -0.00244  -0.00143   0.03449   0.03950
  Beta virt. eigenvalues --    0.04369   0.05567   0.06338   0.07652   0.07661
  Beta virt. eigenvalues --    0.07966   0.08913   0.09699   0.09705   0.11417
  Beta virt. eigenvalues --    0.12196   0.12203   0.12346   0.13318   0.14454
  Beta virt. eigenvalues --    0.14463   0.15341   0.16354   0.16401   0.16495
  Beta virt. eigenvalues --    0.16500   0.17033   0.17210   0.17348   0.17355
  Beta virt. eigenvalues --    0.17362   0.17659   0.19193   0.19203   0.19640
  Beta virt. eigenvalues --    0.20325   0.20327   0.22392   0.22441   0.25339
  Beta virt. eigenvalues --    0.25345   0.26697   0.26850   0.27875   0.30179
  Beta virt. eigenvalues --    0.30179   0.30192   0.30413   0.31268   0.31271
  Beta virt. eigenvalues --    0.31495   0.32337   0.33376   0.33645   0.33653
  Beta virt. eigenvalues --    0.35594   0.38217   0.38225   0.39112   0.40804
  Beta virt. eigenvalues --    0.44083   0.45782   0.45787   0.45789   0.47691
  Beta virt. eigenvalues --    0.47721   0.48353   0.49182   0.49185   0.50103
  Beta virt. eigenvalues --    0.50215   0.50653   0.50657   0.51655   0.52537
  Beta virt. eigenvalues --    0.52619   0.52622   0.53886   0.54890   0.54922
  Beta virt. eigenvalues --    0.55868   0.55870   0.57381   0.57383   0.57580
  Beta virt. eigenvalues --    0.57672   0.58416   0.59915   0.60072   0.60076
  Beta virt. eigenvalues --    0.60427   0.60811   0.60814   0.61064   0.61081
  Beta virt. eigenvalues --    0.61535   0.61569   0.61799   0.61804   0.62776
  Beta virt. eigenvalues --    0.62779   0.63338   0.63340   0.63461   0.64194
  Beta virt. eigenvalues --    0.65278   0.65364   0.66421   0.66422   0.66496
  Beta virt. eigenvalues --    0.67540   0.70174   0.70174   0.71307   0.73481
  Beta virt. eigenvalues --    0.74511   0.75789   0.75792   0.77653   0.77697
  Beta virt. eigenvalues --    0.78619   0.78620   0.79639   0.80575   0.81254
  Beta virt. eigenvalues --    0.82175   0.82253   0.82255   0.83894   0.83902
  Beta virt. eigenvalues --    0.84156   0.84305   0.84818   0.84987   0.85246
  Beta virt. eigenvalues --    0.85766   0.85766   0.86415   0.86443   0.86579
  Beta virt. eigenvalues --    0.87924   0.88221   0.88600   0.88604   0.89453
  Beta virt. eigenvalues --    0.91519   0.91521   0.92878   0.93751   0.93907
  Beta virt. eigenvalues --    0.93910   0.96006   0.96981   0.96994   0.98331
  Beta virt. eigenvalues --    0.99271   0.99563   0.99569   1.00823   1.00848
  Beta virt. eigenvalues --    1.00852   1.02599   1.02617   1.03174   1.03176
  Beta virt. eigenvalues --    1.03578   1.05937   1.06945   1.07827   1.07834
  Beta virt. eigenvalues --    1.08118   1.10073   1.11993   1.12867   1.13631
  Beta virt. eigenvalues --    1.13632   1.14747   1.14999   1.18208   1.18210
  Beta virt. eigenvalues --    1.18969   1.21403   1.21797   1.21811   1.23841
  Beta virt. eigenvalues --    1.24741   1.25310   1.25417   1.25418   1.25829
  Beta virt. eigenvalues --    1.26344   1.28484   1.28484   1.28538   1.30079
  Beta virt. eigenvalues --    1.30089   1.32047   1.32055   1.33514   1.33865
  Beta virt. eigenvalues --    1.34238   1.37121   1.39190   1.40053   1.40069
  Beta virt. eigenvalues --    1.40422   1.40425   1.44569   1.45658   1.45659
  Beta virt. eigenvalues --    1.45880   1.46016   1.46163   1.47655   1.47667
  Beta virt. eigenvalues --    1.48171   1.48801   1.48805   1.49045   1.49094
  Beta virt. eigenvalues --    1.50967   1.50968   1.50970   1.51000   1.52727
  Beta virt. eigenvalues --    1.52739   1.54253   1.55438   1.55442   1.55983
  Beta virt. eigenvalues --    1.56407   1.56870   1.56879   1.57541   1.64663
  Beta virt. eigenvalues --    1.68650   1.73918   1.73925   1.73927   1.76718
  Beta virt. eigenvalues --    1.76765   1.77022   1.80628   1.80634   1.80836
  Beta virt. eigenvalues --    1.81004   1.81381   1.81385   1.83570   1.85065
  Beta virt. eigenvalues --    1.87266   1.87266   1.90104   1.90113   1.91621
  Beta virt. eigenvalues --    1.92285   1.92287   1.93353   1.93353   1.93521
  Beta virt. eigenvalues --    1.94265   1.94431   1.94438   1.95464   1.96717
  Beta virt. eigenvalues --    1.97650   1.98192   1.98455   1.98464   2.00844
  Beta virt. eigenvalues --    2.00967   2.04706   2.04713   2.05405   2.08206
  Beta virt. eigenvalues --    2.08206   2.08999   2.11889   2.12942   2.12944
  Beta virt. eigenvalues --    2.13784   2.16318   2.17476   2.17477   2.18935
  Beta virt. eigenvalues --    2.19325   2.19336   2.19511   2.19728   2.19930
  Beta virt. eigenvalues --    2.20638   2.21096   2.22117   2.22117   2.22802
  Beta virt. eigenvalues --    2.23114   2.24143   2.25560   2.25566   2.27669
  Beta virt. eigenvalues --    2.29503   2.30564   2.30571   2.31936   2.31937
  Beta virt. eigenvalues --    2.32779   2.33913   2.33924   2.34225   2.35689
  Beta virt. eigenvalues --    2.37416   2.37432   2.37436   2.39285   2.43233
  Beta virt. eigenvalues --    2.43972   2.43974   2.44323   2.45034   2.45044
  Beta virt. eigenvalues --    2.46672   2.52040   2.55145   2.55448   2.55452
  Beta virt. eigenvalues --    2.56802   2.57201   2.57521   2.57827   2.57842
  Beta virt. eigenvalues --    2.63860   2.63860   2.64570   2.64920   2.68505
  Beta virt. eigenvalues --    2.68510   2.68653   2.68673   2.69903   2.70128
  Beta virt. eigenvalues --    2.71246   2.71250   2.72123   2.72305   2.72307
  Beta virt. eigenvalues --    2.72311   2.77605   2.77607   2.78263   2.80710
  Beta virt. eigenvalues --    2.82898   2.84113   2.84115   2.85216   2.86179
  Beta virt. eigenvalues --    2.86183   2.86187   2.89650   2.90351   2.91815
  Beta virt. eigenvalues --    2.93094   2.93094   2.99887   3.04586   3.04998
  Beta virt. eigenvalues --    3.05002   3.09885   3.15763   3.23329   3.25567
  Beta virt. eigenvalues --    3.25567   3.26142   3.42633   3.42634   3.45508
  Beta virt. eigenvalues --    3.46938
          Condensed to atoms (all electrons):
 Mulliken atomic charges:
              1
     1  Cr   1.115334
     2  N   -0.551197
     3  C   -0.120121
     4  C    0.322518
     5  C    0.040862
     6  C   -0.161235
     7  C   -0.173676
     8  H    0.167819
     9  H    0.127019
    10  H    0.127902
    11  H    0.131869
    12  N   -0.551197
    13  C   -0.120121
    14  C    0.322518
    15  C    0.040862
    16  C   -0.161235
    17  C   -0.173676
    18  H    0.167819
    19  H    0.127019
    20  H    0.127902
    21  H    0.131869
    22  N   -0.551197
    23  C   -0.120121
    24  C    0.040862
    25  C    0.322518
    26  C   -0.173676
    27  C   -0.161235
    28  H    0.167819
    29  H    0.127902
    30  H    0.127019
    31  H    0.131869
    32  N   -0.551197
    33  C   -0.120121
    34  C    0.322518
    35  C    0.040862
    36  C   -0.161235
    37  C   -0.173676
    38  H    0.167819
    39  H    0.127019
    40  H    0.127902
    41  H    0.131869
    42  N   -0.482897
    43  N   -0.482897
    44  C   -0.073082
    45  H    0.123936
    46  C   -0.073082
    47  H    0.123936
    48  C   -0.073082
    49  H    0.123936
    50  C   -0.073082
    51  H    0.123936
 Sum of Mulliken charges=   0.00000
 Atomic charges with hydrogens summed into heavy atoms:
              1
     1  Cr   1.115334
     2  N   -0.551197
     3  C    0.011748
     4  C    0.322518
     5  C    0.208681
     6  C   -0.034216
     7  C   -0.045774
     8  H    0.000000
     9  H    0.000000
    10  H    0.000000
    11  H    0.000000
    12  N   -0.551197
    13  C    0.011748
    14  C    0.322518
    15  C    0.208681
    16  C   -0.034216
    17  C   -0.045774
    18  H    0.000000
    19  H    0.000000
    20  H    0.000000
    21  H    0.000000
    22  N   -0.551197
    23  C    0.011748
    24  C    0.208681
    25  C    0.322518
    26  C   -0.045774
    27  C   -0.034216
    28  H    0.000000
    29  H    0.000000
    30  H    0.000000
    31  H    0.000000
    32  N   -0.551197
    33  C    0.011748
    34  C    0.322518
    35  C    0.208681
    36  C   -0.034216
    37  C   -0.045774
    38  H    0.000000
    39  H    0.000000
    40  H    0.000000
    41  H    0.000000
    42  N   -0.482897
    43  N   -0.482897
    44  C    0.050855
    45  H    0.000000
    46  C    0.050855
    47  H    0.000000
    48  C    0.050855
    49  H    0.000000
    50  C    0.050855
    51  H    0.000000
 Sum of Mulliken charges=   0.00000
          Atomic-Atomic Spin Densities.
              1          2          3          4          5          6
     1  Cr   2.910519   0.022158  -0.000283  -0.003105  -0.002895   0.000415
     2  N    0.022158   0.028653   0.001854  -0.023894  -0.006420  -0.002819
     3  C   -0.000283   0.001854   0.073874  -0.004883  -0.002640  -0.021021
     4  C   -0.003105  -0.023894  -0.004883   0.099557  -0.003197   0.004350
     5  C   -0.002895  -0.006420  -0.002640  -0.003197   0.018670  -0.003208
     6  C    0.000415  -0.002819  -0.021021   0.004350  -0.003208   0.074996
     7  C   -0.000220   0.002602   0.008423  -0.010972   0.002557  -0.003261
     8  H   -0.001085   0.000211   0.000007  -0.000123   0.001030  -0.000690
     9  H    0.000027  -0.000047  -0.000162  -0.000050   0.000051   0.000264
    10  H   -0.000023  -0.000049  -0.000144  -0.000042  -0.000025   0.000048
    11  H   -0.000020  -0.000002   0.000242   0.000043  -0.000004  -0.000039
    12  N    0.022158   0.000988   0.000010  -0.000487   0.000074  -0.000049
    13  C   -0.000283   0.000010   0.000000  -0.000004  -0.000003  -0.000001
    14  C   -0.003105  -0.000487  -0.000004   0.000095   0.000160   0.000044
    15  C   -0.002895   0.000074  -0.000003   0.000160   0.000066  -0.000005
    16  C    0.000415  -0.000049  -0.000001   0.000044  -0.000005   0.000003
    17  C   -0.000219   0.000010   0.000000  -0.000001   0.000012  -0.000001
    18  H   -0.001085   0.000006   0.000000  -0.000022   0.000004   0.000000
    19  H    0.000027   0.000000   0.000000   0.000000   0.000000   0.000000
    20  H   -0.000023   0.000000   0.000000   0.000000   0.000000   0.000000
    21  H   -0.000020   0.000000   0.000000   0.000000   0.000000   0.000000
    22  N    0.022158  -0.000160   0.000000   0.000008   0.000007   0.000000
    23  C   -0.000283   0.000000   0.000000   0.000000   0.000000   0.000000
    24  C   -0.002895   0.000007   0.000000  -0.000001  -0.000001   0.000000
    25  C   -0.003105   0.000008   0.000000   0.000004  -0.000001   0.000000
    26  C   -0.000220   0.000000   0.000000  -0.000001   0.000000   0.000000
    27  C    0.000415   0.000000   0.000000   0.000000   0.000000   0.000000
    28  H   -0.001085   0.000001   0.000000   0.000000   0.000000   0.000000
    29  H   -0.000023   0.000000   0.000000   0.000000   0.000000   0.000000
    30  H    0.000027   0.000000   0.000000   0.000000   0.000000   0.000000
    31  H   -0.000020   0.000000   0.000000   0.000000   0.000000   0.000000
    32  N    0.022158  -0.009062  -0.000016   0.001654   0.001062   0.000076
    33  C   -0.000283  -0.000016   0.000000   0.000004   0.000005   0.000001
    34  C   -0.003105   0.001654   0.000004  -0.000125  -0.000391  -0.000053
    35  C   -0.002895   0.001062   0.000005  -0.000391  -0.000021  -0.000021
    36  C    0.000415   0.000076   0.000001  -0.000053  -0.000021  -0.000002
    37  C   -0.000219  -0.000021   0.000000   0.000002   0.000026   0.000001
    38  H   -0.001085   0.000032   0.000000  -0.000030   0.000002   0.000000
    39  H    0.000027   0.000000   0.000000   0.000000   0.000000   0.000000
    40  H   -0.000023   0.000000   0.000000   0.000000   0.000000   0.000000
    41  H   -0.000020   0.000000   0.000000   0.000000   0.000000   0.000000
    42  N    0.032661  -0.002226   0.000000   0.000066   0.000527  -0.000017
    43  N    0.032661   0.002675   0.000018  -0.007610   0.000100  -0.000021
    44  C   -0.006815  -0.003870  -0.000316   0.016139  -0.000136   0.000139
    45  H    0.000301   0.000027   0.000003   0.000359   0.000014  -0.000003
    46  C   -0.006815  -0.000103   0.000000   0.000684   0.000009   0.000000
    47  H    0.000301   0.000001   0.000000  -0.000007   0.000000   0.000000
    48  C   -0.006815   0.000526   0.000001  -0.000044  -0.000704  -0.000056
    49  H    0.000301   0.000003   0.000000   0.000000  -0.000004   0.000000
    50  C   -0.006815  -0.000254  -0.000001  -0.000001  -0.000352   0.000001
    51  H    0.000301   0.000000   0.000000   0.000000  -0.000002   0.000000
              7          8          9         10         11         12
     1  Cr  -0.000220  -0.001085   0.000027  -0.000023  -0.000020   0.022158
     2  N    0.002602   0.000211  -0.000047  -0.000049  -0.000002   0.000988
     3  C    0.008423   0.000007  -0.000162  -0.000144   0.000242   0.000010
     4  C   -0.010972  -0.000123  -0.000050  -0.000042   0.000043  -0.000487
     5  C    0.002557   0.001030   0.000051  -0.000025  -0.000004   0.000074
     6  C   -0.003261  -0.000690   0.000264   0.000048  -0.000039  -0.000049
     7  C   -0.014161   0.000041   0.000016   0.000653  -0.000138   0.000010
     8  H    0.000041  -0.001093   0.000043  -0.000001   0.000001   0.000006
     9  H    0.000016   0.000043  -0.003015   0.000000   0.000049   0.000000
    10  H    0.000653  -0.000001   0.000000  -0.000260   0.000044   0.000000
    11  H   -0.000138   0.000001   0.000049   0.000044  -0.003353   0.000000
    12  N    0.000010   0.000006   0.000000   0.000000   0.000000   0.028653
    13  C    0.000000   0.000000   0.000000   0.000000   0.000000   0.001854
    14  C   -0.000001  -0.000022   0.000000   0.000000   0.000000  -0.023894
    15  C    0.000012   0.000004   0.000000   0.000000   0.000000  -0.006420
    16  C   -0.000001   0.000000   0.000000   0.000000   0.000000  -0.002819
    17  C    0.000000   0.000000   0.000000   0.000000   0.000000   0.002602
    18  H    0.000000   0.000000   0.000000   0.000000   0.000000   0.000211
    19  H    0.000000   0.000000   0.000000   0.000000   0.000000  -0.000047
    20  H    0.000000   0.000000   0.000000   0.000000   0.000000  -0.000049
    21  H    0.000000   0.000000   0.000000   0.000000   0.000000  -0.000002
    22  N    0.000000   0.000001   0.000000   0.000000   0.000000  -0.009062
    23  C    0.000000   0.000000   0.000000   0.000000   0.000000  -0.000016
    24  C    0.000000   0.000000   0.000000   0.000000   0.000000   0.001062
    25  C   -0.000001   0.000000   0.000000   0.000000   0.000000   0.001654
    26  C    0.000000   0.000000   0.000000   0.000000   0.000000  -0.000021
    27  C    0.000000   0.000000   0.000000   0.000000   0.000000   0.000076
    28  H    0.000000   0.000000   0.000000   0.000000   0.000000   0.000032
    29  H    0.000000   0.000000   0.000000   0.000000   0.000000   0.000000
    30  H    0.000000   0.000000   0.000000   0.000000   0.000000   0.000000
    31  H    0.000000   0.000000   0.000000   0.000000   0.000000   0.000000
    32  N   -0.000021   0.000032   0.000000   0.000000   0.000000  -0.000160
    33  C    0.000000   0.000000   0.000000   0.000000   0.000000   0.000000
    34  C    0.000002  -0.000030   0.000000   0.000000   0.000000   0.000008
    35  C    0.000026   0.000002   0.000000   0.000000   0.000000   0.000007
    36  C    0.000001   0.000000   0.000000   0.000000   0.000000   0.000000
    37  C    0.000000   0.000000   0.000000   0.000000   0.000000   0.000000
    38  H    0.000000   0.000000   0.000000   0.000000   0.000000   0.000001
    39  H    0.000000   0.000000   0.000000   0.000000   0.000000   0.000000
    40  H    0.000000   0.000000   0.000000   0.000000   0.000000   0.000000
    41  H    0.000000   0.000000   0.000000   0.000000   0.000000   0.000000
    42  N    0.000000   0.000013   0.000001   0.000000   0.000000   0.002675
    43  N    0.000247   0.000001   0.000000  -0.000001   0.000000  -0.002226
    44  C   -0.001659  -0.000008   0.000000   0.000069   0.000001  -0.000254
    45  H    0.000192   0.000000   0.000000  -0.000074   0.000000   0.000000
    46  C    0.000023   0.000000   0.000000   0.000000   0.000000   0.000526
    47  H   -0.000001   0.000000   0.000000   0.000000   0.000000   0.000003
    48  C    0.000001   0.000176   0.000000   0.000000   0.000000  -0.000103
    49  H    0.000000  -0.000009   0.000000   0.000000   0.000000   0.000001
    50  C    0.000001   0.000178   0.000000   0.000000   0.000000  -0.003870
    51  H    0.000000  -0.000007   0.000000   0.000000   0.000000   0.000027
             13         14         15         16         17         18
     1  Cr  -0.000283  -0.003105  -0.002895   0.000415  -0.000219  -0.001085
     2  N    0.000010  -0.000487   0.000074  -0.000049   0.000010   0.000006
     3  C    0.000000  -0.000004  -0.000003  -0.000001   0.000000   0.000000
     4  C   -0.000004   0.000095   0.000160   0.000044  -0.000001  -0.000022
     5  C   -0.000003   0.000160   0.000066  -0.000005   0.000012   0.000004
     6  C   -0.000001   0.000044  -0.000005   0.000003  -0.000001   0.000000
     7  C    0.000000  -0.000001   0.000012  -0.000001   0.000000   0.000000
     8  H    0.000000  -0.000022   0.000004   0.000000   0.000000   0.000000
     9  H    0.000000   0.000000   0.000000   0.000000   0.000000   0.000000
    10  H    0.000000   0.000000   0.000000   0.000000   0.000000   0.000000
    11  H    0.000000   0.000000   0.000000   0.000000   0.000000   0.000000
    12  N    0.001854  -0.023894  -0.006420  -0.002819   0.002602   0.000211
    13  C    0.073874  -0.004883  -0.002640  -0.021021   0.008423   0.000007
    14  C   -0.004883   0.099557  -0.003197   0.004350  -0.010972  -0.000123
    15  C   -0.002640  -0.003197   0.018670  -0.003208   0.002557   0.001030
    16  C   -0.021021   0.004350  -0.003208   0.074996  -0.003261  -0.000690
    17  C    0.008423  -0.010972   0.002557  -0.003261  -0.014161   0.000041
    18  H    0.000007  -0.000123   0.001030  -0.000690   0.000041  -0.001093
    19  H   -0.000162  -0.000050   0.000051   0.000264   0.000016   0.000043
    20  H   -0.000144  -0.000042  -0.000025   0.000048   0.000653  -0.000001
    21  H    0.000242   0.000043  -0.000004  -0.000039  -0.000138   0.000001
    22  N   -0.000016   0.001654   0.001062   0.000076  -0.000021   0.000032
    23  C    0.000000   0.000004   0.000005   0.000001   0.000000   0.000000
    24  C    0.000005  -0.000391  -0.000021  -0.000021   0.000026   0.000002
    25  C    0.000004  -0.000125  -0.000391  -0.000053   0.000002  -0.000030
    26  C    0.000000   0.000002   0.000026   0.000001   0.000000   0.000000
    27  C    0.000001  -0.000053  -0.000021  -0.000002   0.000001   0.000000
    28  H    0.000000  -0.000030   0.000002   0.000000   0.000000   0.000000
    29  H    0.000000   0.000000   0.000000   0.000000   0.000000   0.000000
    30  H    0.000000   0.000000   0.000000   0.000000   0.000000   0.000000
    31  H    0.000000   0.000000   0.000000   0.000000   0.000000   0.000000
    32  N    0.000000   0.000008   0.000007   0.000000   0.000000   0.000001
    33  C    0.000000   0.000000   0.000000   0.000000   0.000000   0.000000
    34  C    0.000000   0.000004  -0.000001   0.000000  -0.000001   0.000000
    35  C    0.000000  -0.000001  -0.000001   0.000000   0.000000   0.000000
    36  C    0.000000   0.000000   0.000000   0.000000   0.000000   0.000000
    37  C    0.000000  -0.000001   0.000000   0.000000   0.000000   0.000000
    38  H    0.000000   0.000000   0.000000   0.000000   0.000000   0.000000
    39  H    0.000000   0.000000   0.000000   0.000000   0.000000   0.000000
    40  H    0.000000   0.000000   0.000000   0.000000   0.000000   0.000000
    41  H    0.000000   0.000000   0.000000   0.000000   0.000000   0.000000
    42  N    0.000018  -0.007610   0.000100  -0.000021   0.000247   0.000001
    43  N    0.000000   0.000066   0.000527  -0.000017   0.000000   0.000013
    44  C   -0.000001  -0.000001  -0.000352   0.000001   0.000001   0.000178
    45  H    0.000000   0.000000  -0.000002   0.000000   0.000000  -0.000007
    46  C    0.000001  -0.000044  -0.000704  -0.000056   0.000001   0.000176
    47  H    0.000000   0.000000  -0.000004   0.000000   0.000000  -0.000009
    48  C    0.000000   0.000684   0.000009   0.000000   0.000023   0.000000
    49  H    0.000000  -0.000007   0.000000   0.000000  -0.000001   0.000000
    50  C   -0.000316   0.016139  -0.000136   0.000139  -0.001659  -0.000008
    51  H    0.000003   0.000359   0.000014  -0.000003   0.000192   0.000000
             19         20         21         22         23         24
     1  Cr   0.000027  -0.000023  -0.000020   0.022158  -0.000283  -0.002895
     2  N    0.000000   0.000000   0.000000  -0.000160   0.000000   0.000007
     3  C    0.000000   0.000000   0.000000   0.000000   0.000000   0.000000
     4  C    0.000000   0.000000   0.000000   0.000008   0.000000  -0.000001
     5  C    0.000000   0.000000   0.000000   0.000007   0.000000  -0.000001
     6  C    0.000000   0.000000   0.000000   0.000000   0.000000   0.000000
     7  C    0.000000   0.000000   0.000000   0.000000   0.000000   0.000000
     8  H    0.000000   0.000000   0.000000   0.000001   0.000000   0.000000
     9  H    0.000000   0.000000   0.000000   0.000000   0.000000   0.000000
    10  H    0.000000   0.000000   0.000000   0.000000   0.000000   0.000000
    11  H    0.000000   0.000000   0.000000   0.000000   0.000000   0.000000
    12  N   -0.000047  -0.000049  -0.000002  -0.009062  -0.000016   0.001062
    13  C   -0.000162  -0.000144   0.000242  -0.000016   0.000000   0.000005
    14  C   -0.000050  -0.000042   0.000043   0.001654   0.000004  -0.000391
    15  C    0.000051  -0.000025  -0.000004   0.001062   0.000005  -0.000021
    16  C    0.000264   0.000048  -0.000039   0.000076   0.000001  -0.000021
    17  C    0.000016   0.000653  -0.000138  -0.000021   0.000000   0.000026
    18  H    0.000043  -0.000001   0.000001   0.000032   0.000000   0.000002
    19  H   -0.003015   0.000000   0.000049   0.000000   0.000000   0.000000
    20  H    0.000000  -0.000260   0.000044   0.000000   0.000000   0.000000
    21  H    0.000049   0.000044  -0.003353   0.000000   0.000000   0.000000
    22  N    0.000000   0.000000   0.000000   0.028653   0.001854  -0.006420
    23  C    0.000000   0.000000   0.000000   0.001854   0.073874  -0.002640
    24  C    0.000000   0.000000   0.000000  -0.006420  -0.002640   0.018670
    25  C    0.000000   0.000000   0.000000  -0.023894  -0.004883  -0.003197
    26  C    0.000000   0.000000   0.000000   0.002602   0.008423   0.002557
    27  C    0.000000   0.000000   0.000000  -0.002819  -0.021021  -0.003208
    28  H    0.000000   0.000000   0.000000   0.000211   0.000007   0.001030
    29  H    0.000000   0.000000   0.000000  -0.000049  -0.000144  -0.000025
    30  H    0.000000   0.000000   0.000000  -0.000047  -0.000162   0.000051
    31  H    0.000000   0.000000   0.000000  -0.000002   0.000242  -0.000004
    32  N    0.000000   0.000000   0.000000   0.000988   0.000010   0.000074
    33  C    0.000000   0.000000   0.000000   0.000010   0.000000  -0.000003
    34  C    0.000000   0.000000   0.000000  -0.000487  -0.000004   0.000160
    35  C    0.000000   0.000000   0.000000   0.000074  -0.000003   0.000066
    36  C    0.000000   0.000000   0.000000  -0.000049  -0.000001  -0.000005
    37  C    0.000000   0.000000   0.000000   0.000010   0.000000   0.000012
    38  H    0.000000   0.000000   0.000000   0.000006   0.000000   0.000004
    39  H    0.000000   0.000000   0.000000   0.000000   0.000000   0.000000
    40  H    0.000000   0.000000   0.000000   0.000000   0.000000   0.000000
    41  H    0.000000   0.000000   0.000000   0.000000   0.000000   0.000000
    42  N    0.000000  -0.000001   0.000000  -0.002226   0.000000   0.000527
    43  N    0.000001   0.000000   0.000000   0.002675   0.000018   0.000100
    44  C    0.000000   0.000000   0.000000  -0.000103   0.000000   0.000009
    45  H    0.000000   0.000000   0.000000   0.000001   0.000000   0.000000
    46  C    0.000000   0.000000   0.000000  -0.003870  -0.000316  -0.000136
    47  H    0.000000   0.000000   0.000000   0.000027   0.000003   0.000014
    48  C    0.000000   0.000000   0.000000  -0.000254  -0.000001  -0.000352
    49  H    0.000000   0.000000   0.000000   0.000000   0.000000  -0.000002
    50  C    0.000000   0.000069   0.000001   0.000526   0.000001  -0.000704
    51  H    0.000000  -0.000074   0.000000   0.000003   0.000000  -0.000004
             25         26         27         28         29         30
     1  Cr  -0.003105  -0.000220   0.000415  -0.001085  -0.000023   0.000027
     2  N    0.000008   0.000000   0.000000   0.000001   0.000000   0.000000
     3  C    0.000000   0.000000   0.000000   0.000000   0.000000   0.000000
     4  C    0.000004  -0.000001   0.000000   0.000000   0.000000   0.000000
     5  C   -0.000001   0.000000   0.000000   0.000000   0.000000   0.000000
     6  C    0.000000   0.000000   0.000000   0.000000   0.000000   0.000000
     7  C   -0.000001   0.000000   0.000000   0.000000   0.000000   0.000000
     8  H    0.000000   0.000000   0.000000   0.000000   0.000000   0.000000
     9  H    0.000000   0.000000   0.000000   0.000000   0.000000   0.000000
    10  H    0.000000   0.000000   0.000000   0.000000   0.000000   0.000000
    11  H    0.000000   0.000000   0.000000   0.000000   0.000000   0.000000
    12  N    0.001654  -0.000021   0.000076   0.000032   0.000000   0.000000
    13  C    0.000004   0.000000   0.000001   0.000000   0.000000   0.000000
    14  C   -0.000125   0.000002  -0.000053  -0.000030   0.000000   0.000000
    15  C   -0.000391   0.000026  -0.000021   0.000002   0.000000   0.000000
    16  C   -0.000053   0.000001  -0.000002   0.000000   0.000000   0.000000
    17  C    0.000002   0.000000   0.000001   0.000000   0.000000   0.000000
[...]
 310,0.00279084,-0.00136571,-0.00141399,0.00048543,0.00050582,0.0005507
 7,-0.00245295,-0.00280038,-0.00282037,0.00011010,-0.00013918,-0.000132
 56,-0.00020697,-0.00001828,-0.00003082,-0.00003721,0.00004968,-0.00000
 276,-0.00002928,0.00001066,-0.00000507,0.00010072,-0.00112752,0.002290
 10,-0.00232128,-0.00024039,0.00030235,0.00321110,0.00121934,-0.0012810
 3,-0.00059896,-0.00234803,0.00215830,0.00524211,0.00177204,-0.00193711
 ,-0.00096302,-0.00098512,0.00100498,-0.00247666,-0.00058111,-0.0001530
 1,-0.00002190,0.00000276,-0.00000172,0.00008200,0.00005105,0.00004027,
 -0.00009264,0.00004185,-0.00007046,0.00007955,0.02054609,0.02249498,-0
 .06330250,-0.00503965,-0.00553971,0.00442350,0.07267106,0.07769125,-0.
 18914753,-0.00713308,-0.00727636,0.00120661,0.00232834,0.00261525,-0.0
 0520491,0.00418971,0.00414669,0.01655836,0.00070758,0.00084511,-0.0010
 4903,0.00018623,-0.00006571,0.00019637,-0.00059746,-0.00047000,0.00019
 132,-0.00074202,-0.00075232,0.00108728,-0.08056693,-0.08048228,-0.1751
 8037,0.00008504,0.00033529,-0.00529200,-0.00415091,0.00441164,-0.00089
 653,0.00009798,-0.00009900,0.00001868,0.00420854,-0.00440914,-0.000831
 93,-0.00004216,0.00013179,0.00001362,0.00685475,-0.00047638,0.73059721
 ,0.00033356,-0.00117554,0.00132189,0.00029312,-0.00002010,-0.00026447,
 0.00003298,-0.00001455,0.00019194,0.00008264,-0.00028660,0.00027935,-0
 .00018390,0.00000622,0.00012941,0.00004354,-0.00010826,-0.00021462,-0.
 00011086,0.00009630,-0.00008329,0.00001396,0.00005962,-0.00004808,0.00
 001421,0.00001849,-0.00000034,0.00000270,-0.00000721,-0.00000788,0.000
 00370,-0.00000403,-0.00000588,-0.00043182,-0.00006807,0.00013535,-0.00
 002439,-0.00010372,-0.00019650,-0.00046626,-0.00055023,-0.00020283,0.0
 0022271,-0.00011864,0.00015827,-0.00005942,-0.00009595,0.00011912,0.00
 017268,0.00017345,0.00001463,0.00000107,0.00003000,-0.00000135,-0.0000
 4798,0.00002073,0.00000406,-0.00006053,0.00002056,0.00001302,0.0000042
 7,-0.00001267,-0.00000405,0.00011745,0.00014993,0.00025835,0.00001158,
 0.00000265,-0.00009387,-0.00003112,0.00006428,-0.00028412,-0.00007629,
 -0.00014332,-0.00001788,-0.00003824,0.00003338,0.00003585,-0.00001971,
 -0.00005606,0.00016889,-0.00004950,-0.00001045,-0.00000084,-0.00000414
 ,-0.00000189,0.00000307,-0.00001019,0.00002291,-0.00000413,0.00000318,
 0.00000162,0.00000706,-0.00135688,-0.00357765,0.00253846,-0.00019452,0
 .00018677,0.00023044,0.00372727,0.00458522,0.01452252,0.00162460,-0.00
 026704,0.00069634,-0.00019460,-0.00017987,-0.00036320,-0.00034894,0.00
 154132,0.00039783,-0.00018592,-0.00012937,0.00019105,-0.00008635,0.000
 02421,-0.00003206,0.00007114,-0.00038626,-0.00025127,0.00002758,-0.000
 07204,0.00001219,0.00019179,-0.00814698,-0.02549759,-0.00036984,-0.000
 63564,-0.00069681,-0.00017286,0.00044315,-0.00009798,0.00010968,0.0000
 5260,-0.00003535,0.00024037,0.00002580,-0.00004214,0.00004625,0.000107
 62,-0.00002674,-0.04222585,-0.01945498,-0.01592270,0.03891260,-0.00243
 220,-0.00079340,0.00159419,-0.00004138,-0.00014410,0.00020880,-0.00002
 092,-0.00000777,-0.00003889,0.00007020,0.00010690,0.00004930,0.0001034
 1,0.00004012,-0.00027315,0.00003283,0.00002324,0.00011207,0.00002481,-
 0.00001682,0.00002239,-0.00003767,-0.00006261,-0.00000268,0.00000748,-
 0.00002773,-0.00000417,0.00000203,0.00000026,0.00000281,-0.00000155,-0
 .00000192,0.00000672,0.00019638,-0.00013588,-0.00008837,-0.00005225,0.
 00001506,-0.00007620,-0.00027118,-0.00027741,0.00003522,-0.00015681,0.
 00021249,0.00012477,-0.00007630,-0.00005347,0.00003190,0.00003741,0.00
 003760,-0.00003881,0.00001180,-0.00001412,-0.00000007,0.00003006,-0.00
 004118,0.00000261,0.00002892,-0.00005154,0.00001035,-0.00001579,0.0000
 0232,-0.00000252,-0.00020105,0.00008636,-0.00030251,-0.00001878,0.0000
 1510,0.00021407,0.00006863,-0.00012232,0.00013393,-0.00009983,0.000273
 39,0.00033141,0.00009475,-0.00009489,-0.00008748,-0.00005748,0.0001204
 4,-0.00024495,0.00003623,-0.00001158,-0.00004967,-0.00000399,0.0000052
 1,-0.00000717,-0.00000328,-0.00000842,-0.00000017,-0.00000479,0.000004
 16,-0.00000601,-0.00323234,-0.00148030,0.00233923,0.00023718,-0.000129
 40,0.00012282,0.00472359,0.00424176,0.01552799,-0.00025535,0.00171828,
 0.00071075,-0.00016141,-0.00019771,-0.00030566,0.00147476,-0.00019103,
 0.00046432,-0.00011985,-0.00020953,0.00020136,0.00003923,-0.00006903,-
 0.00002722,-0.00040979,0.00000663,-0.00028581,-0.00007163,0.00002214,0
 .00001257,-0.00777960,0.00052432,-0.02599724,0.00048295,0.00070253,-0.
 00055541,-0.00023097,0.00003212,-0.00009900,-0.00005260,-0.00012391,-0
 .00002955,0.00021622,-0.00045631,-0.00013180,-0.00010762,-0.00004383,-
 0.00003686,-0.01961968,-0.04363837,-0.01509255,0.02300769,0.03992191,-
 0.00012069,-0.00004486,0.00164780,-0.00006412,0.00004109,0.00031150,-0
 .00001212,0.00001575,-0.00031357,-0.00014817,0.00015171,-0.00036802,0.
 00009464,-0.00009244,-0.00022681,-0.00006797,0.00008235,0.00030425,0.0
 0015116,-0.00016070,0.00009578,-0.00003829,0.00000550,-0.00000156,0.00
 001822,-0.00002180,0.00000732,0.00000462,-0.00000482,-0.00001132,0.000
 00574,-0.00001166,-0.00000295,-0.00026635,-0.00024640,0.00022116,-0.00
 014929,-0.00016404,-0.00039854,-0.00087960,-0.00090237,-0.00060709,0.0
 0018247,0.00018533,0.00017918,-0.00013889,-0.00015720,0.00029522,0.000
 40176,0.00040122,0.00002412,0.00001721,0.00002001,0.00001353,-0.000014
 37,-0.00001134,0.00000500,-0.00001170,-0.00001054,0.00001398,-0.000009
 03,-0.00000714,-0.00000960,0.00000300,-0.00007441,0.00030682,0.0000189
 2,-0.00002182,-0.00030063,-0.00005015,0.00009021,-0.00023646,0.0001504
 3,-0.00017452,-0.00036265,-0.00015136,0.00016691,0.00009194,0.00006824
 ,-0.00005927,0.00029390,-0.00000398,-0.00004175,-0.00000390,-0.0000049
 8,0.00000468,-0.00001074,-0.00002565,0.00001580,0.00000655,-0.00000795
 ,0.00001009,-0.00000299,0.00197068,0.00223593,-0.00075873,0.00024490,0
 .00026211,-0.00065553,-0.00408764,-0.00435325,-0.01218152,-0.00083102,
 -0.00093061,-0.00024676,0.00033971,0.00035217,0.00068510,-0.00094580,-
 0.00105692,0.00002288,0.00013701,0.00015401,-0.00014087,0.00003802,0.0
 0005234,0.00005071,0.00043853,0.00047383,0.00047755,0.00004316,0.00004
 398,-0.00002827,-0.00579374,-0.00582359,-0.01276799,0.00002028,-0.0000
 2443,-0.00017085,0.00014188,-0.00013947,0.00001866,0.00003535,-0.00002
 956,-0.00003541,-0.00015657,0.00016549,0.00001363,-0.00002673,0.000036
 87,-0.00003446,-0.01577232,-0.01413711,-0.32925344,0.02376688,0.022244
 36,0.35224547,-0.00744060,-0.00776868,0.03069684,0.01129524,-0.0094997
 6,-0.01320523,0.00051758,-0.00089291,0.01513325,0.00921638,-0.01009129
 ,0.02575177,-0.00768016,0.00800871,-0.00085799,0.00561069,-0.00539868,
 -0.01351537,-0.00711833,0.00733016,-0.00502115,-0.00126627,0.00103703,
 -0.00105475,0.00008261,-0.00000565,-0.00037763,0.00005585,-0.00009375,
 0.00024615,-0.00017669,0.00006892,0.00011673,0.01624078,0.01073841,-0.
 02128761,0.00911615,0.00624471,0.02327158,-0.10624966,-0.06131238,-0.0
 4851615,-0.00659242,-0.01037187,0.00488624,0.00338280,0.00450455,-0.01
 804160,-0.03395716,-0.04191400,-0.01822046,-0.00015856,-0.00057656,-0.
 00072147,-0.00022205,0.00029142,-0.00041949,-0.00045102,0.00139436,-0.
 00061613,-0.00031214,-0.00083528,0.00003749,-0.00789386,0.01006575,-0.
 01368833,-0.00114722,0.00136123,0.01564742,0.00720594,-0.00735113,0.00
 098573,-0.01057229,0.01076598,0.02517144,0.00801031,-0.00847556,-0.005
 14634,-0.00498884,0.00523227,-0.01411043,0.00037520,-0.00160251,-0.001
 37422,-0.00009830,0.00002403,0.00021864,0.00001925,0.00001951,-0.00034
 853,0.00006522,-0.00018050,0.00010652,-0.00610667,-0.00624003,-0.01111
 673,0.00149380,0.00189303,0.01156390,0.00653267,0.00097199,0.01267447,
 0.00309627,0.00413770,0.00150390,-0.00351123,-0.00360258,-0.00928904,0
 .00193803,0.00135836,-0.00271768,0.00058392,0.00052248,-0.00078415,0.0
 0020290,-0.00005235,-0.00021389,0.00012115,0.00021568,0.00031535,-0.00
 014021,0.00005645,0.00006601,-0.15865836,-0.12004282,0.04565850,-0.000
 87274,0.00007656,-0.01852850,-0.01695418,0.01881747,-0.00420862,0.0002
 4038,-0.00021623,0.00015663,0.01828688,-0.01868687,-0.00415084,-0.0001
 7286,0.00023097,0.00014179,-0.02587024,-0.03053284,0.00181166,0.000856
 64,0.00412648,0.00245276,0.34629129,-0.01021331,-0.01099497,0.03144843
 ,0.01171087,-0.01013256,-0.01395741,0.00073352,-0.00112527,0.01684044,
 0.01034102,-0.01106464,0.02721275,-0.00796246,0.00929828,0.00020806,0.
 00597800,-0.00620199,-0.01516075,-0.00809599,0.00843316,-0.00554661,-0
 .00166112,0.00048855,-0.00141087,-0.00004954,-0.00005413,-0.00039733,0
 .00005571,-0.00007618,0.00024996,-0.00005460,0.00018282,0.00010330,0.0
 1240376,0.01910145,-0.02441688,0.00574599,0.00981094,0.02545502,-0.060
 62897,-0.11369004,-0.04975724,-0.01075891,-0.00826581,0.00481909,0.004
 69534,0.00437519,-0.01958097,-0.04280847,-0.03875663,-0.01967130,-0.00
 069902,-0.00026132,-0.00075410,0.00041072,-0.00027461,-0.00044548,0.00
 156930,-0.00034846,-0.00063894,-0.00075131,-0.00045191,0.00002967,-0.0
 0880324,0.01126330,-0.01419053,-0.00115402,0.00171423,0.01618875,0.007
 29433,-0.00814166,-0.00005819,-0.01097985,0.01159149,0.02615797,0.0086
 1249,-0.00905498,-0.00528109,-0.00525819,0.00533451,-0.01424966,0.0009
 6834,-0.00119694,-0.00111043,-0.00010078,0.00005297,0.00022706,-0.0001
 8618,-0.00005684,-0.00036645,0.00014700,-0.00013106,0.00014255,-0.0050
 2255,-0.00730478,-0.01176838,0.00191311,0.00175096,0.01226734,0.001358
 29,0.00626190,0.01381441,0.00331889,0.00441409,0.00172597,-0.00386377,
 -0.00369023,-0.00985759,0.00107189,0.00244755,-0.00287723,0.00057858,0
 .00051628,-0.00083836,0.00024496,-0.00005399,-0.00022559,0.00016090,0.
 00022911,0.00034963,0.00002133,-0.00009040,0.00006337,-0.12091483,-0.1
 5730047,0.04561399,0.00088097,0.00214658,-0.02039142,-0.01881736,0.019
 76863,-0.00440927,-0.00002581,-0.00045633,0.00016557,0.01868690,-0.020
 18038,-0.00441156,-0.00044318,0.00003212,0.00013938,-0.03053295,-0.026
 24313,0.00144441,0.00446954,0.00065666,0.00249304,0.26586966,0.3593673
 1,0.00654917,0.00647252,-0.00687418,0.00112754,-0.00228995,-0.00232141
 ,0.00024047,-0.00030239,0.00321117,0.00234814,-0.00215852,0.00524210,-
 0.00121921,0.00128084,-0.00059888,0.00098502,-0.00100489,-0.00247662,-
 0.00177221,0.00193730,-0.00096304,0.00058111,0.00015301,-0.00002187,-0
 .00005105,-0.00004027,-0.00009265,-0.00000275,0.00000171,0.00008200,-0
 .00004183,0.00007040,0.00007953,-0.02054593,-0.02249497,-0.06330256,0.
 00503959,0.00553967,0.00442360,-0.07267098,-0.07769113,-0.18914740,0.0
 0713302,0.00727631,0.00120657,-0.00232828,-0.00261518,-0.00520493,-0.0
 0418973,-0.00414670,0.01655823,-0.00070758,-0.00084511,-0.00104898,-0.
 00018621,0.00006569,0.00019635,0.00059745,0.00047001,0.00019136,0.0007
 4209,0.00075238,0.00108725,-0.00193274,0.00245963,-0.00211587,-0.00003
 187,0.00015314,0.00330648,0.00137027,-0.00177292,-0.00080514,-0.002151
 72,0.00184408,0.00562630,0.00161240,-0.00161325,-0.00101641,-0.0012602
 6,0.00123476,-0.00259278,0.00018745,0.00045348,-0.00000038,-0.00001972
 ,-0.00001976,0.00008760,0.00001316,0.00000940,-0.00010126,0.00002785,-
 0.00007151,0.00007202,-0.00060598,-0.00077630,-0.00230525,-0.00131753,
 -0.00148684,0.00251798,-0.00713415,-0.00721298,0.00279073,0.00136565,0
 .00141393,0.00048545,-0.00050576,-0.00055070,-0.00245293,0.00280036,0.
 00282034,0.00011022,0.00013918,0.00013258,-0.00020700,0.00001830,0.000
 03080,-0.00003718,-0.00004969,0.00000276,-0.00002933,-0.00001060,0.000
 00513,0.00010075,0.08056720,0.08048249,-0.17518037,-0.00008477,-0.0003
 3528,-0.00529200,-0.00420866,0.00440927,-0.00083184,0.00004212,-0.0001
 3181,0.00001356,0.00415079,-0.00441147,-0.00089658,-0.00009801,0.00009
 897,0.00001871,-0.00181181,-0.00144461,0.01561619,-0.00176707,-0.00172
 276,0.00154888,-0.00685491,0.00047618,0.73059718,0.00033356,-0.0011755
 4,-0.00132187,0.00011744,0.00014994,-0.00025837,0.00001161,0.00000263,
 0.00009392,-0.00007627,-0.00014335,0.00001788,-0.00003111,0.00006426,0
 .00028410,-0.00001971,-0.00005605,-0.00016890,-0.00003829,0.00003343,-
 0.00003585,-0.00004950,-0.00001045,0.00000087,-0.00001020,0.00002292,0
 .00000412,-0.00000414,-0.00000189,-0.00000308,0.00000317,0.00000162,-0
 .00000706,-0.00135688,-0.00357764,-0.00253850,-0.00019451,0.00018678,-
 0.00023039,0.00372730,0.00458524,-0.01452249,0.00162458,-0.00026705,-0
 .00069634,-0.00019458,-0.00017985,0.00036318,-0.00034897,0.00154128,-0
 .00039786,-0.00018592,-0.00012938,-0.00019104,-0.00008635,0.00002420,0
 .00003205,0.00007114,-0.00038626,0.00025127,0.00002759,-0.00007203,-0.
 00001219,0.00029310,-0.00002008,0.00026448,0.00003296,-0.00001454,-0.0
 0019190,-0.00018387,0.00000618,-0.00012944,0.00008265,-0.00028662,-0.0
 0027935,-0.00011085,0.00009630,0.00008327,0.00004351,-0.00010823,0.000
 21462,0.00001396,0.00005962,0.00004811,0.00000270,-0.00000721,0.000007
 87,0.00001421,0.00001849,0.00000034,0.00000369,-0.00000403,0.00000589,
 -0.00043183,-0.00006807,-0.00013535,-0.00002441,-0.00010373,0.00019651
 ,-0.00046627,-0.00055024,0.00020284,0.00022273,-0.00011864,-0.00015828
 ,-0.00005943,-0.00009596,-0.00011913,0.00017271,0.00017348,-0.00001463
 ,0.00000108,0.00003002,0.00000135,-0.00004798,0.00002073,-0.00000405,-
 0.00006053,0.00002056,-0.00001303,0.00000427,-0.00001266,0.00000406,0.
 00019179,-0.00814699,0.02549755,-0.00036983,-0.00063562,0.00069678,0.0
 0024036,0.00002579,0.00004216,0.00004624,0.00010762,0.00002673,-0.0001
 7285,0.00044316,0.00009799,0.00010968,0.00005260,0.00003535,0.00085667
 ,0.00446956,0.00176707,-0.00041116,0.00048305,-0.00096706,-0.04222589,
 -0.01945501,0.01592269,0.03891260,-0.00243215,-0.00079338,-0.00159420,
 -0.00020106,0.00008638,0.00030252,-0.00001880,0.00001511,-0.00021409,-
 0.00009981,0.00027337,-0.00033141,0.00006862,-0.00012232,-0.00013389,-
 0.00005748,0.00012044,0.00024496,0.00009475,-0.00009488,0.00008748,0.0
 0003624,-0.00001158,0.00004965,-0.00000328,-0.00000842,0.00000017,-0.0
 0000399,0.00000521,0.00000718,-0.00000478,0.00000416,0.00000601,-0.003
 23237,-0.00148032,-0.00233922,0.00023717,-0.00012941,-0.00012283,0.004
 72359,0.00424178,-0.01552798,-0.00025535,0.00171830,-0.00071076,-0.000
 16142,-0.00019772,0.00030569,0.00147475,-0.00019103,-0.00046431,-0.000
 11984,-0.00020953,-0.00020135,0.00003923,-0.00006903,0.00002721,-0.000
 40979,0.00000662,0.00028580,-0.00007162,0.00002215,-0.00001257,-0.0000
 4137,-0.00014415,-0.00020881,-0.00002093,-0.00000775,0.00003889,0.0001
 0338,0.00004016,0.00027318,0.00007015,0.00010695,-0.00004931,0.0000248
 5,-0.00001687,-0.00002241,0.00003285,0.00002322,-0.00011206,-0.0000376
 7,-0.00006261,0.00000267,0.00000203,0.00000025,-0.00000280,0.00000748,
 -0.00002773,0.00000418,-0.00000155,-0.00000192,-0.00000672,0.00019639,
 -0.00013583,0.00008833,-0.00005229,0.00001502,0.00007621,-0.00027123,-
 0.00027747,-0.00003521,-0.00015685,0.00021245,-0.00012472,-0.00007628,
 -0.00005345,-0.00003189,0.00003746,0.00003765,0.00003879,0.00001180,-0
 .00001412,0.00000006,0.00003006,-0.00004118,-0.00000261,0.00002892,-0.
 00005154,-0.00001035,-0.00001578,0.00000233,0.00000253,-0.00777961,0.0
 0052430,0.02599721,0.00048292,0.00070252,0.00055539,0.00021623,-0.0004
 5630,0.00013180,-0.00010762,-0.00004383,0.00003687,-0.00023093,0.00003
 211,0.00009899,-0.00005260,-0.00012390,0.00002956,0.00412652,0.0006567
 1,0.00172274,0.00048304,-0.00036444,-0.00100276,-0.01961968,-0.0436383
 7,0.01509253,0.02300769,0.03992191,0.00012124,0.00004507,0.00164780,-0
 .00000303,0.00007424,0.00030694,-0.00001901,0.00002188,-0.00030064,-0.
 00015051,0.00017470,-0.00036268,0.00005006,-0.00009006,-0.00023657,-0.
 00006817,0.00005921,0.00029384,0.00015148,-0.00016705,0.00009198,0.000
 00398,0.00004176,-0.00000390,0.00002564,-0.00001580,0.00000655,0.00000
 498,-0.00000467,-0.00001073,0.00000795,-0.00001007,-0.00000298,-0.0019
 7084,-0.00223592,-0.00075869,-0.00024489,-0.00026211,-0.00065557,0.004
 08758,0.00435312,-0.01218164,0.00083108,0.00093063,-0.00024673,-0.0003
 3975,-0.00035223,0.00068510,0.00094583,0.00105691,0.00002293,-0.000137
 02,-0.00015401,-0.00014090,-0.00003804,-0.00005232,0.00005072,-0.00043
 851,-0.00047383,0.00047754,-0.00004318,-0.00004399,-0.00002825,0.00006
 409,-0.00004122,0.00031138,0.00001208,-0.00001572,-0.00031356,-0.00009
 475,0.00009256,-0.00022673,0.00014806,-0.00015151,-0.00036799,-0.00015
 103,0.00016055,0.00009580,0.00006801,-0.00008239,0.00030432,0.00003831
 ,-0.00000550,-0.00000156,-0.00000463,0.00000484,-0.00001133,-0.0000182
 1,0.00002179,0.00000731,-0.00000577,0.00001169,-0.00000298,0.00026618,
 0.00024640,0.00022111,0.00014934,0.00016404,-0.00039846,0.00087956,0.0
 0090225,-0.00060705,-0.00018244,-0.00018530,0.00017918,0.00013881,0.00
 015711,0.00029520,-0.00040172,-0.00040117,0.00002409,-0.00001719,-0.00
 002001,0.00001353,0.00001436,0.00001137,0.00000499,0.00001171,0.000010
 53,0.00001399,0.00000897,0.00000711,-0.00000962,0.00579350,0.00582332,
 -0.01276799,-0.00002053,0.00002444,-0.00017085,0.00015669,-0.00016561,
 0.00001354,0.00002676,-0.00003686,-0.00003440,-0.00014176,0.00013933,0
 .00001873,-0.00003532,0.00002957,-0.00003545,-0.00245261,-0.00249285,0
 .00154893,0.00096707,0.00100278,0.00024974,0.01577246,0.01413731,-0.32
 925338,-0.02376686,-0.02224434,0.35224538\\0.,0.,-0.00000002,0.0000205
 1,0.00000711,0.00003240,0.00000303,-0.00000748,0.00001573,0.00001317,-
 0.00001458,-0.00003810,-0.00000774,-0.00000506,0.00000715,0.00000444,0
 .,-0.00001451,-0.00001852,0.00001823,0.00000162,0.00000137,0.00000040,
 -0.00000264,-0.00000299,-0.00000085,0.00000299,0.00000437,-0.00000236,
 0.00000171,0.00000091,0.00000282,-0.00000332,-0.00002051,0.00000711,-0
 .00003240,-0.00000304,-0.00000749,-0.00001575,-0.00001318,-0.00001459,
 0.00003808,0.00000775,-0.00000505,-0.00000716,-0.00000445,0.,0.0000145
 1,0.00001852,0.00001823,-0.00000161,-0.00000137,0.00000040,0.00000265,
 0.00000299,-0.00000085,-0.00000299,-0.00000437,-0.00000237,-0.00000170
 ,-0.00000091,0.00000282,0.00000332,-0.00002051,-0.00000711,0.00003240,
 -0.00000303,0.00000748,0.00001573,0.00000774,0.00000506,0.00000715,-0.
 00001317,0.00001458,-0.00003810,0.00001852,-0.00001823,0.00000162,-0.0
 0000444,0.,-0.00001451,-0.00000137,-0.00000040,-0.00000264,-0.00000437
 ,0.00000236,0.00000171,0.00000299,0.00000085,0.00000299,-0.00000091,-0
 .00000282,-0.00000332,0.00002051,-0.00000711,-0.00003240,0.00000304,0.
 00000749,-0.00001575,0.00001318,0.00001459,0.00003808,-0.00000775,0.00
 000505,-0.00000716,0.00000445,0.,0.00001451,-0.00001852,-0.00001823,-0
 .00000161,0.00000137,-0.00000040,0.00000265,-0.00000299,0.00000085,-0.
 00000299,0.00000437,0.00000237,-0.00000170,0.00000091,-0.00000282,0.00
 000332,0.,0.,-0.00005481,0.,0.,0.00005481,0.00003408,-0.00003233,-0.00
 003493,-0.00000524,0.00000485,0.00000670,-0.00003408,0.00003233,-0.000
 03493,0.00000524,-0.00000485,0.00000670,0.00003407,0.00003232,0.000034
 95,-0.00000524,-0.00000485,-0.00000669,-0.00003407,-0.00003232,0.00003
 495,0.00000524,0.00000485,-0.00000669\\\@


 CONFIDENCE: THAT QUIET ASSURED FEELING YOU HAVE
 JUST BEFORE YOU FALL FLAT ON YOUR FACE.
 Job cpu time:  1 days 18 hours 30 minutes 55.1 seconds.
 File lengths (MBytes):  RWF=   3207 Int=      0 D2E=      0 Chk=     25 Scr=      1
 Normal termination of Gaussian 03 at Fri Apr  4 19:14:17 2008.
 
Job cr-smif-q started on n07 Wed Apr 2 14:40:09 CDT 2008
Free disk space on n07:
Filesystem           1K-blocks      Used Available Use% Mounted on
/dev/sda6            269744624     32836 256009548   1% /scratch
 
Elapsed cpu time for cr-smif-q on n07:
 
real 189247.73
user 183505.94
sys 5216.07
 
Job cr-smif-q stopped on n07 Fri Apr 4 19:14:18 CDT 2008
Free disk space on n07:
Filesystem           1K-blocks      Used Available Use% Mounted on
/dev/sda6            269744624     49872 255992512   1% /scratch
 
