SLURM_JOBID=2206953
SLURM_JOB_NODELIST=k07n01s02,k07n03s01
SLURM_NNODES=2
SLURMTMPDIR=/scratch/2206953
working directory = /ifs/user/m27/ORCA/MyMol
 'orca/2.9.1' load complete.
Currently Loaded Modulefiles:
  1) null              3) intel/13.1        5) intel/13.0
  2) modules           4) orca/2.9.1        6) intel-mpi/4.1.0
Launch ORCA4 with SLURM

                                 *****************
                                 * O   R   C   A *
                                 *****************

           --- An Ab Initio, DFT and Semiempirical electronic structure package ---

                  ######################################################
                  #                        -***-                       #
                  #  Department of molecular theory and spectroscopy   #
                  #              Directorship: Frank Neese             #
                  #   Max Planck Institute for Bioinorganic Chemistry  #
                  #                  D-45470 Muelheim/Ruhr             #
                  #                       Germany                      #
                  #                                                    #
                  #                  All rights reserved               #
                  #                        -***-                       #
                  ######################################################


                         Program Version 2.9.1 -  RELEASE  -


 With contributions from (in alphabetic order):
   Ute Becker             : Parallelization
   Dmitry Ganyushin       : Spin-Orbit,Spin-Spin,Magnetic field MRCI
   Andreas Hansen         : Spin unrestricted coupled pair/coupled cluster methods
   Dimitrios Liakos       : Parallel MDCI
   Robert Izsak           : Overlap fitted RIJCOSX
   Christian Kollmar      : KDIIS, orbital optimized coupled pair methods, Brueckner methods
   Simone Kossmann        : Meta GGA functionals, improved MP2 methods
   Taras Petrenko         : TD-DFT gradient, Resonance Raman, ABS, fluorescence, XAS, NRVS
   Christoph Reimann      : Effective Core Potentials
   Michael Roemelt        : Restricted open shell CI
   Christoph Riplinger    : Improved optimizer, TS searches, QM/MM
   Barbara Sandhoefer     : DKH, picture change effects
   Igor Schapiro          : Molecular dynamics
   Kantharuban Sivalingam : CASSCF and multireference perturbation theory
   Boris Wezisla          : Elementary symmetry handling
   Frank Wennmohs         : Technical directorship


 We gratefully acknowledge several collegues who have allowed us to
 interface, adapt or use parts of their codes:
   Stefan Grimme                                : VdW corrections, initial TS optimization
                                                  and many helpful discussions
   Ed Valeev                                    : LibInt (2-el integral package), F12 methods
   Andreas Klamt, Michael Diedenhofen           : otool_cosmo (COSMO solvation model)
   Frank Weinhold                               : gennbo (NPA and NBO analysis)


 Your calculation uses the libint2 library for the computation of 2-el integrals
 For citations please refer to: http://libint.valeyev.net

Your calculation utilizes the basis: Ahlrichs-VDZ
Cite in your paper:
H - Kr: A. Schaefer, H. Horn and R. Ahlrichs, J. Chem. Phys. 97, 2571 (1992).

Your calculation utilizes pol. fcns from basis: Ahlrichs polarization
Cite in your paper:
H - Kr: R. Ahlrichs and coworkers, unpublished

Your calculation utilizes aux bases from the TurboMole library
Cite in your paper:
The Ahlrichs auxiliary basis sets were obtained from the TurboMole
basis set library under ftp.chemie.uni-karlsruhe.de/pub/jbasen
H - Ba; Hf - At:
      1) K. Eichkorn, O. Treutler, H. Ohm, M. Haser and R. Ahlrichs,
         Chem. Phys. Letters 240, 283 (1995).
      2) K. Eichkorn, F. Weigend, O. Treutler, R. Ahlrichs,
         Theor. Chem. Acc. 97, 119 (1997)
Rb-I : uncontracted bases constructed by FN 'by inspection' (01/2002)


Your calculation utilizes the basis: Ahlrichs-TZV
Cite in your paper:
H - Kr: A. Schaefer, H. Horn and R. Ahlrichs, J. Chem. Phys. 97, 2571 (1992).

Your calculation utilizes pol. fcns from the TurboMole library
Cite in your paper:
The Ahlrichs (2df,2pd) polarization functions were obtained from the TurboMole
basis set library under ftp.chemie.uni-karlsruhe.de/pub/basen

Your calculation utilizes the basis: Ahlrichs-VDZ
Cite in your paper:
H - Kr: A. Schaefer, H. Horn and R. Ahlrichs, J. Chem. Phys. 97, 2571 (1992).

Your calculation utilizes pol. fcns from basis: Ahlrichs polarization
Cite in your paper:
H - Kr: R. Ahlrichs and coworkers, unpublished

Your calculation utilizes aux bases from the TurboMole library
Cite in your paper:
The Ahlrichs auxiliary basis sets were obtained from the TurboMole
basis set library under ftp.chemie.uni-karlsruhe.de/pub/jbasen
H - Ba; Hf - At:
      1) K. Eichkorn, O. Treutler, H. Ohm, M. Haser and R. Ahlrichs,
         Chem. Phys. Letters 240, 283 (1995).
      2) K. Eichkorn, F. Weigend, O. Treutler, R. Ahlrichs,
         Theor. Chem. Acc. 97, 119 (1997)
Rb-I : uncontracted bases constructed by FN 'by inspection' (01/2002)


================================================================================
                                        WARNINGS
                       Please study these warnings very carefully!
================================================================================
Now building the actual basis set

WARNING: Gradients are needed
  ===> : forcing at least TightSCF

WARNING: Geometry Optimization
  ===> : Switching off AutoStart
         For restart on a previous wavefunction, please use MOREAD


INFO   : the flag for use of LIBINT has been found!

================================================================================
                                       INPUT FILE
================================================================================
NAME = orca4.inp
|  1> # 
|  2> # Geometry optimization of [Fe(H2O)6]3+ employing DFT 
|  3> # The RI approximation is used 
|  4> # The SV(P) basis set was replaced by the TZVPP basis set for iron 
|  5> # 
|  6>  
|  7> ! UKS BP SV(P) SV/J OPT Split-RI-J 
|  8>  
|  9> %basis NewGTO 26 "TZVPP" end 
| 10>  NewAuxGTO 26 "TZV/J" end 
| 11>  end 
| 12>  
| 13> * xyz 3 6 
| 14>  Fe 0.000047 -0.000114 0.000013 
| 15>  O -0.199873 1.108797 1.733279 
| 16>  H 0.380320 1.865880 2.020956 
| 17>  O -1.236638 1.328040 -0.990513 
| 18>  H -1.665421 2.138758 -0.601345 
| 19>  O -1.643746 -1.133837 0.535682 
| 20>  H -2.594241 -0.943118 0.306097 
| 21>  O 0.198381 -1.109845 -1.732630 
| 22>  H 0.891437 -0.986937 -2.437690 
| 23>  O 1.238604 -1.327482 0.989961 
| 24>  H 1.513573 -1.279077 1.946292 
| 25>  O 1.643403 1.134541 -0.535766 
| 26>  H 2.593848 0.945769 -0.304430 
| 27>  H -1.516941 1.276571 -1.945157 
| 28>  H 1.632468 1.972748 -1.074090 
| 29>  H -0.894758 0.986836 2.436707 
| 30>  H 1.671714 -2.135426 0.599824 
| 31>  H -0.383130 -1.865932 -2.020344 
| 32>  H -1.633554 -1.973176 1.072267 
| 33> **                         ****END OF INPUT****
================================================================================

                       *****************************
                       * Geometry Optimization Run *
                       *****************************

Geometry optimization settings:
Update method            Update   .... BFGS
Choice of coordinates    CoordSys .... Redundant Internals
Initial Hessian          InHess   .... Almoef's Model

Convergence Tolerances:
Energy Change            TolE     ....  5.0000e-06 Eh
Max. Gradient            TolMAXG  ....  3.0000e-04 Eh/bohr
RMS Gradient             TolRMSG  ....  1.0000e-04 Eh/bohr
Max. Displacement        TolMAXD  ....  4.0000e-03 bohr
RMS Displacement         TolRMSD  ....  2.0000e-03 bohr

------------------------------------------------------------------------------
                        ORCA OPTIMIZATION COORDINATE SETUP
------------------------------------------------------------------------------

The optimization will be done in new redundant internal coordinates
Making redundant internal coordinates   ...  (new redundants) done
Evaluating the initial hessian          ...  (Almloef) done
Evaluating the coordinates              ...  done
Calculating the B-matrix                .... done
Calculating the G-matrix                .... done
Diagonalizing the G-matrix              .... done
The first mode is                       ....   57
The number of degrees of freedom        ....   51

    -----------------------------------------------------------------
                    Redundant Internal Coordinates


    -----------------------------------------------------------------
         Definition                    Initial Value    Approx d2E/dq
    -----------------------------------------------------------------
      1. B(O   1,Fe  0)                  2.0673         0.470284   
      2. B(H   2,O   1)                  0.9963         0.455091   
      3. B(O   3,Fe  0)                  2.0675         0.470007   
      4. B(H   4,O   3)                  0.9963         0.455079   
      5. B(O   5,Fe  0)                  2.0674         0.470091   
      6. B(H   6,O   5)                  0.9963         0.455118   
      7. B(O   7,Fe  0)                  2.0671         0.470690   
      8. B(H   8,O   7)                  0.9963         0.455103   
      9. B(O   9,Fe  0)                  2.0678         0.469422   
     10. B(H  10,O   9)                  0.9963         0.455122   
     11. B(O  11,Fe  0)                  2.0676         0.469759   
     12. B(H  12,O  11)                  0.9962         0.455141   
     13. B(H  13,O   3)                  0.9963         0.455085   
     14. B(H  14,O  11)                  0.9962         0.455136   
     15. B(H  15,O   1)                  0.9963         0.455096   
     16. B(H  16,O   9)                  0.9963         0.455084   
     17. B(H  17,O   7)                  0.9963         0.455053   
     18. B(H  18,O   5)                  0.9963         0.455124   
     19. A(O   7,Fe  0,O  11)           90.0659         0.490395   
     20. A(O   1,Fe  0,O  11)           89.9860         0.490317   
     21. A(O   7,Fe  0,O   9)           89.9538         0.490330   
     22. A(O   1,Fe  0,O   5)           90.0015         0.490381   
     23. A(O   5,Fe  0,O   9)           90.0104         0.490214   
     24. A(O   1,Fe  0,O   9)           90.0496         0.490252   
     25. A(O   5,Fe  0,O   7)           89.9466         0.490459   
     26. A(O   3,Fe  0,O   7)           90.0394         0.490443   
     27. A(O   3,Fe  0,O  11)           89.9278         0.490263   
     28. A(O   1,Fe  0,O   3)           89.9571         0.490365   
     29. A(O   3,Fe  0,O   5)           90.0469         0.490327   
     30. A(O   9,Fe  0,O  11)           90.0148         0.490150   
     31. A(Fe  0,O   1,H  15)          126.4238         0.385637   
     32. A(H   2,O   1,H  15)          107.1780         0.308206   
     33. A(Fe  0,O   1,H   2)          126.3982         0.385636   
     34. A(Fe  0,O   3,H   4)          126.3732         0.385595   
     35. A(H   4,O   3,H  13)          107.1725         0.308203   
     36. A(Fe  0,O   3,H  13)          126.4542         0.385595   
     37. A(H   6,O   5,H  18)          107.1674         0.308212   
     38. A(Fe  0,O   5,H  18)          126.3998         0.385613   
     39. A(Fe  0,O   5,H   6)          126.4327         0.385612   
     40. A(H   8,O   7,H  17)          107.1747         0.308202   
     41. A(Fe  0,O   7,H  17)          126.4040         0.385688   
     42. A(Fe  0,O   7,H   8)          126.4210         0.385696   
     43. A(H  10,O   9,H  16)          107.1767         0.308208   
     44. A(Fe  0,O   9,H  10)          126.4186         0.385517   
     45. A(Fe  0,O   9,H  16)          126.4047         0.385512   
     46. A(H  12,O  11,H  14)          107.1799         0.308215   
     47. A(Fe  0,O  11,H  14)          126.3710         0.385567   
     48. A(Fe  0,O  11,H  12)          126.4491         0.385568   
     49. D(H   2,O   1,Fe  0,O  11)      0.0018         0.002663   
     50. D(H  15,O   1,Fe  0,O   3)     90.0106         0.002663   
     51. D(H   2,O   1,Fe  0,O   5)   -179.9729         0.002663   
     52. D(H   2,O   1,Fe  0,O   3)    -89.9260         0.002663   
     53. D(H  15,O   1,Fe  0,O   9)    -90.0467         0.002663   
     54. D(H  15,O   1,Fe  0,O   5)     -0.0363         0.002663   
     55. D(H  15,O   1,Fe  0,O  11)    179.9385         0.002663   
     56. D(H   2,O   1,Fe  0,O   9)     90.0166         0.002663   
     57. D(H  13,O   3,Fe  0,O   1)   -179.6992         0.002661   
     58. D(H  13,O   3,Fe  0,O   7)      0.2489         0.002661   
     59. D(H  13,O   3,Fe  0,O   5)    -89.6977         0.002661   
     60. D(H   4,O   3,Fe  0,O   7)   -179.8864         0.002661   
     61. D(H   4,O   3,Fe  0,O   5)     90.1670         0.002661   
     62. D(H   4,O   3,Fe  0,O   1)      0.1655         0.002661   
     63. D(H  13,O   3,Fe  0,O  11)     90.3147         0.002661   
     64. D(H   4,O   3,Fe  0,O  11)    -89.8205         0.002661   
     65. D(H  18,O   5,Fe  0,O   9)     -0.0441         0.002662   
     66. D(H  18,O   5,Fe  0,O   7)     89.9097         0.002662   
     67. D(H  18,O   5,Fe  0,O   1)    -90.0938         0.002662   
     68. D(H   6,O   5,Fe  0,O   9)    179.9247         0.002662   
     69. D(H  18,O   5,Fe  0,O   3)    179.9491         0.002662   
     70. D(H   6,O   5,Fe  0,O   7)    -90.1215         0.002662   
     71. D(H   6,O   5,Fe  0,O   3)     -0.0821         0.002662   
     72. D(H   6,O   5,Fe  0,O   1)     89.8750         0.002662   
     73. D(H  17,O   7,Fe  0,O   5)      0.0737         0.002665   
     74. D(H   8,O   7,Fe  0,O  11)     -0.1135         0.002665   
     75. D(H   8,O   7,Fe  0,O   9)    -90.1283         0.002665   
     76. D(H   8,O   7,Fe  0,O   5)    179.8612         0.002665   
     77. D(H   8,O   7,Fe  0,O   3)     89.8143         0.002665   
     78. D(H  17,O   7,Fe  0,O   9)     90.0842         0.002665   
     79. D(H  17,O   7,Fe  0,O   3)    -89.9732         0.002665   
     80. D(H  17,O   7,O   1,H  15)      0.0374         0.001500   
     81. D(H  17,O   7,O   1,H   2)   -179.8967         0.001500   
     82. D(H   8,O   7,O   1,H  15)    179.8223         0.001500   
     83. D(H   8,O   7,O   1,H   2)     -0.1118         0.001500   
     84. D(H  17,O   7,Fe  0,O  11)   -179.9010         0.002665   
     85. D(H  16,O   9,O   3,H  13)      0.4653         0.001500   
     86. D(H  10,O   9,O   3,H  13)   -179.5454         0.001500   
     87. D(H  10,O   9,O   3,H   4)      0.3616         0.001500   
     88. D(H  16,O   9,Fe  0,O  11)    -89.8493         0.002659   
     89. D(H  16,O   9,Fe  0,O   7)      0.2166         0.002659   
     90. D(H  16,O   9,Fe  0,O   5)     90.1631         0.002659   
     91. D(H  16,O   9,Fe  0,O   1)   -179.8353         0.002659   
     92. D(H  10,O   9,Fe  0,O  11)     90.1822         0.002659   
     93. D(H  10,O   9,Fe  0,O   7)   -179.7520         0.002659   
     94. D(H  16,O   9,O   3,H   4)   -179.6276         0.001500   
     95. D(H  10,O   9,Fe  0,O   5)    -89.8054         0.002659   
     96. D(H  10,O   9,Fe  0,O   1)      0.1962         0.002659   
     97. D(H  14,O  11,O   5,H  18)    179.8576         0.001500   
     98. D(H  12,O  11,O   5,H  18)     -0.1396         0.001500   
     99. D(H  12,O  11,O   5,H   6)    179.8201         0.001500   
    100. D(H  14,O  11,Fe  0,O   9)    179.8926         0.002660   
    101. D(H  14,O  11,Fe  0,O   7)     89.9387         0.002660   
    102. D(H  14,O  11,Fe  0,O   3)     -0.1007         0.002660   
    103. D(H  14,O  11,Fe  0,O   1)    -90.0578         0.002660   
    104. D(H  12,O  11,Fe  0,O   9)     -0.0954         0.002660   
    105. D(H  12,O  11,Fe  0,O   7)    -90.0493         0.002660   
    106. D(H  14,O  11,O   5,H   6)     -0.1828         0.001500   
    107. D(H  12,O  11,Fe  0,O   3)    179.9114         0.002660   
    108. D(H  12,O  11,Fe  0,O   1)     89.9542         0.002660   
    -----------------------------------------------------------------

Number of atoms                         .... 19
Number of degrees of freedom            .... 108

         *************************************************************
         *                GEOMETRY OPTIMIZATION CYCLE   1            *
         *************************************************************
---------------------------------
CARTESIAN COORDINATES (ANGSTROEM)
---------------------------------
  Fe     0.000047   -0.000114    0.000013
  O     -0.199873    1.108797    1.733279
  H      0.380320    1.865880    2.020956
  O     -1.236638    1.328040   -0.990513
  H     -1.665421    2.138758   -0.601345
  O     -1.643746   -1.133837    0.535682
  H     -2.594241   -0.943118    0.306097
  O      0.198381   -1.109845   -1.732630
  H      0.891437   -0.986937   -2.437690
  O      1.238604   -1.327482    0.989961
  H      1.513573   -1.279077    1.946292
  O      1.643403    1.134541   -0.535766
  H      2.593848    0.945769   -0.304430
  H     -1.516941    1.276571   -1.945157
  H      1.632468    1.972748   -1.074090
  H     -0.894758    0.986836    2.436707
  H      1.671714   -2.135426    0.599824
  H     -0.383130   -1.865932   -2.020344
  H     -1.633554   -1.973176    1.072267

----------------------------
CARTESIAN COORDINATES (A.U.)
----------------------------
  NO LB      ZA    FRAG    MASS        X           Y           Z
   0 Fe   26.0000    0    55.850    0.000089   -0.000215    0.000025
   1 O     8.0000    0    15.999   -0.377705    2.095323    3.275423
   2 H     1.0000    0     1.008    0.718701    3.526002    3.819053
   3 O     8.0000    0    15.999   -2.336907    2.509632   -1.871798
   4 H     1.0000    0     1.008   -3.147190    4.041667   -1.136377
   5 O     8.0000    0    15.999   -3.106230   -2.142641    1.012292
   6 H     1.0000    0     1.008   -4.902405   -1.782235    0.578440
   7 O     8.0000    0    15.999    0.374886   -2.097303   -3.274196
   8 H     1.0000    0     1.008    1.684572   -1.865041   -4.606566
   9 O     8.0000    0    15.999    2.340622   -2.508577    1.870755
  10 H     1.0000    0     1.008    2.860238   -2.417105    3.677959
  11 O     8.0000    0    15.999    3.105582    2.143972   -1.012451
  12 H     1.0000    0     1.008    4.901662    1.787244   -0.575289
  13 H     1.0000    0     1.008   -2.866603    2.412370   -3.675814
  14 H     1.0000    0     1.008    3.084917    3.727953   -2.029736
  15 H     1.0000    0     1.008   -1.690848    1.864850    4.604709
  16 H     1.0000    0     1.008    3.159082   -4.035370    1.133503
  17 H     1.0000    0     1.008   -0.724011   -3.526100   -3.817897
  18 H     1.0000    0     1.008   -3.086970   -3.728762    2.026291

--------------------------------
INTERNAL COORDINATES (ANGSTROEM)
--------------------------------
 Fe     0   0   0   0.000000     0.000     0.000
 O      1   0   0   2.067332     0.000     0.000
 H      2   1   0   0.996271   126.398     0.000
 O      1   2   3   2.067492    89.957   270.074
 H      4   1   2   0.996278   126.373     0.166
 O      1   2   3   2.067444    90.002   180.027
 H      6   1   2   0.996255   126.433    89.875
 O      1   2   3   2.067097   179.948   183.841
 H      8   1   2   0.996264   126.421   176.048
 O      1   2   3   2.067831    90.050    90.017
 H     10   1   2   0.996253   126.419     0.196
 O      1   2   3   2.067636    89.986     0.000
 H     12   1   2   0.996241   126.449    89.954
 H      4   1   2   0.996275   126.454   180.301
 H     12   1   2   0.996245   126.371   269.942
 H      2   1   3   0.996268   126.424   179.937
 H     10   1   2   0.996275   126.405   180.165
 H      8   1   2   0.996294   126.404   356.260
 H      6   1   2   0.996252   126.400   269.906

---------------------------
INTERNAL COORDINATES (A.U.)
---------------------------
 Fe     0   0   0   0.000000     0.000     0.000
 O      1   0   0   3.906692     0.000     0.000
 H      2   1   0   1.882680   126.398     0.000
 O      1   2   3   3.906994    89.957   270.074
 H      4   1   2   1.882693   126.373     0.166
 O      1   2   3   3.906903    90.002   180.027
 H      6   1   2   1.882649   126.433    89.875
 O      1   2   3   3.906248   179.948   183.841
 H      8   1   2   1.882667   126.421   176.048
 O      1   2   3   3.907635    90.050    90.017
 H     10   1   2   1.882645   126.419     0.196
 O      1   2   3   3.907266    89.986     0.000
 H     12   1   2   1.882623   126.449    89.954
 H      4   1   2   1.882687   126.454   180.301
 H     12   1   2   1.882629   126.371   269.942
 H      2   1   3   1.882674   126.424   179.937
 H     10   1   2   1.882688   126.405   180.165
 H      8   1   2   1.882723   126.404   356.260
 H      6   1   2   1.882643   126.400   269.906

---------------------
BASIS SET INFORMATION
---------------------
There are 3 groups of distinct atoms

 Group   1 Type Fe  : 17s11p6d1f contracted to 6s4p3d1f pattern {842111/6311/411/1}
 Group   2 Type O   : 7s4p1d contracted to 3s2p1d pattern {511/31/1}
 Group   3 Type H   : 4s contracted to 2s pattern {31}

Atom   0Fe   basis set group =>   1
Atom   1O    basis set group =>   2
Atom   2H    basis set group =>   3
Atom   3O    basis set group =>   2
Atom   4H    basis set group =>   3
Atom   5O    basis set group =>   2
Atom   6H    basis set group =>   3
Atom   7O    basis set group =>   2
Atom   8H    basis set group =>   3
Atom   9O    basis set group =>   2
Atom  10H    basis set group =>   3
Atom  11O    basis set group =>   2
Atom  12H    basis set group =>   3
Atom  13H    basis set group =>   3
Atom  14H    basis set group =>   3
Atom  15H    basis set group =>   3
Atom  16H    basis set group =>   3
Atom  17H    basis set group =>   3
Atom  18H    basis set group =>   3
-------------------------------
AUXILIARY BASIS SET INFORMATION
-------------------------------
There are 3 groups of distinct atoms

 Group   1 Type Fe  : 16s4p4d3f4g contracted to 6s4p2d3f2g pattern {1021111/1111/31/111/31}
 Group   2 Type O   : 8s3p3d1f contracted to 6s3p3d1f pattern {311111/111/111/1}
 Group   3 Type H   : 4s2p contracted to 2s1p pattern {31/2}

Atom   0Fe   basis set group =>   1
Atom   1O    basis set group =>   2
Atom   2H    basis set group =>   3
Atom   3O    basis set group =>   2
Atom   4H    basis set group =>   3
Atom   5O    basis set group =>   2
Atom   6H    basis set group =>   3
Atom   7O    basis set group =>   2
Atom   8H    basis set group =>   3
Atom   9O    basis set group =>   2
Atom  10H    basis set group =>   3
Atom  11O    basis set group =>   2
Atom  12H    basis set group =>   3
Atom  13H    basis set group =>   3
Atom  14H    basis set group =>   3
Atom  15H    basis set group =>   3
Atom  16H    basis set group =>   3
Atom  17H    basis set group =>   3
Atom  18H    basis set group =>   3
------------------------------------------------------------------------------
                           ORCA GTO INTEGRAL CALCULATION
                           -- RI-GTO INTEGRALS CHOSEN --
------------------------------------------------------------------------------

                         BASIS SET STATISTICS AND STARTUP INFO

Gaussian basis set:
 # of primitive gaussian shells          ...  155
 # of primitive gaussian functions       ...  279
 # of contracted shells                  ...   74
 # of contracted basis functions         ...  148
 Highest angular momentum                ...    3
 Maximum contraction depth               ...    8
Auxiliary gaussian basis set:
 # of primitive gaussian shells          ...  193
 # of primitive gaussian functions       ...  459
 # of contracted shells                  ...  131
 # of contracted aux-basis functions     ...  349
 Highest angular momentum                ...    4
 Maximum contraction depth               ...   10
Ratio of auxiliary to basis functions    ...  2.36
Integral package used                  ... LIBINT
 One Electron integrals                  ... done
 Ordering auxiliary basis shells         ... done
 Integral threshhold             Thresh  ...  2.500e-11
 Primitive cut-off               TCut    ...  2.500e-12
 Pre-screening matrix                    ... done
 Shell pair data                         ... 
 Ordering of the shell pairs             ... done (   0.000 sec) 2676 of 2775 pairs
 Determination of significant pairs      ... done (   0.000 sec)
 Creation of shell pair data             ... done (   0.001 sec)
 Storage of shell pair data              ... done (   0.142 sec)
 Shell pair data done in (   0.144 sec)
 Computing two index integrals           ... done
 Choleksy decomposition of the V-matrix  ... done


Timings:
 Total evaluation time                   ...   0.924 sec (  0.015 min)
 One electron matrix time                ...   0.149 sec (  0.002 min) = 16.1%
 Schwartz matrix evaluation time         ...   0.154 sec (  0.003 min) = 16.6%
 Two index repulsion integral time       ...   0.101 sec (  0.002 min) = 10.9%
 Cholesky decomposition of V             ...   0.215 sec (  0.004 min) = 23.2%
 Three index repulsion integral time     ...   0.000 sec (  0.000 min) =  0.0%

-------------------------------------------------------------------------------
                                 ORCA SCF
-------------------------------------------------------------------------------

------------
SCF SETTINGS
------------
Hamiltonian:
 Density Functional     Method          .... DFT(GTOs)
 Exchange Functional    Exchange        .... B88
   X-Alpha parameter    XAlpha          ....  0.666667
   Becke's b parameter  XBeta           ....  0.004200
 Correlation Functional Correlation     .... P86
 LDA part of GGA corr.  LDAOpt          .... PW91-LDA
 Gradients option       PostSCFGGA      .... off
 RI-approximation to the Coulomb term is turned on
   Number of auxiliary basis functions  .... 349


General Settings:
 Integral files         IntName         .... orca4
 Hartree-Fock type      HFTyp           .... UHF
 Total Charge           Charge          ....    3
 Multiplicity           Mult            ....    6
 Number of Electrons    NEL             ....   83
 Basis Dimension        Dim             ....  148
 Nuclear Repulsion      ENuc            ....    673.4367503827 Eh

Convergence Acceleration:
 DIIS                   CNVDIIS         .... on
   Start iteration      DIISMaxIt       ....    12
   Startup error        DIISStart       ....  0.200000
   # of expansion vecs  DIISMaxEq       ....     5
   Bias factor          DIISBfac        ....   1.050
   Max. coefficient     DIISMaxC        ....  10.000
 Newton-Raphson         CNVNR           .... off
 SOSCF                  CNVSOSCF        .... off
 Level Shifting         CNVShift        .... on
   Level shift para.    LevelShift      ....    0.2500
   Turn off err/grad.   ShiftErr        ....    0.0010
 Zerner damping         CNVZerner       .... off
 Static damping         CNVDamp         .... on
   Fraction old density DampFac         ....    0.7000
   Max. Damping (<1)    DampMax         ....    0.9800
   Min. Damping (>=0)   DampMin         ....    0.0000
   Turn off err/grad.   DampErr         ....    0.1000
 Fernandez-Rico         CNVRico         .... off

SCF Procedure:
 Maximum # iterations   MaxIter         ....   125
 SCF integral mode      SCFMode         .... Direct
   Integral package                     .... LIBINT
 Reset frequeny         DirectResetFreq ....    20
 Integral Threshold     Thresh          ....  2.500e-11 Eh
 Primitive CutOff       TCut            ....  2.500e-12 Eh

Convergence Tolerance:
 Convergence Check Mode ConvCheckMode   .... Total+1el-Energy
 Energy Change          TolE            ....  1.000e-08 Eh
 1-El. energy change                    ....  1.000e-05 Eh
 DIIS Error             TolErr          ....  5.000e-07


Diagonalization of the overlap matrix:
Smallest eigenvalue                        ... 1.592e-02
Time for diagonalization                   ...    0.093 sec
Time for construction of square roots      ...    0.050 sec
Total time needed                          ...    0.143 sec

-------------------
DFT GRID GENERATION
-------------------

General Integration Accuracy     IntAcc      ...  4.340
Radial Grid Type                 RadialGrid  ... Gauss-Chebyshev
Angular Grid (max. acc.)         AngularGrid ... Lebedev-110
Angular grid pruning method      GridPruning ... 3 (G Style)
Weight generation scheme         WeightScheme... Becke
Basis function cutoff            BFCut       ...    1.0000e-11
Integration weight cutoff        WCut        ...    1.0000e-14
Grids for H and He will be reduced by one unit

# of grid points (after initial pruning)     ...  22736 (   0.0 sec)
# of grid points (after weights+screening)   ...  21252 (   0.3 sec)
nearest neighbour list constructed           ...    0.0 sec
Grid point re-assignment to atoms done       ...    0.0 sec
Grid point division into batches done        ...    0.0 sec
Reduced shell lists constructed in    0.5 sec

Total number of grid points                  ...    21252
Total number of batches                      ...      342
Average number of points per batch           ...       62
Average number of grid points per atom       ...     1119
Average number of shells per batch           ...    49.80 (67.29%)
Average number of basis functions per batch  ...    93.95 (63.48%)
Average number of large shells per batch     ...    37.00 (74.31%)
Average number of large basis fcns per batch ...    68.30 (72.70%)
Maximum spatial batch extension              ...  20.93, 20.84, 17.53 au
Average spatial batch extension              ...   3.33,  3.41,  3.46 au

Time for grid setup =    0.833 sec

------------------------------
INITIAL GUESS: MODEL POTENTIAL
------------------------------
Loading Hartree-Fock densities                     ... done
Calculating cut-offs                               ... done
Setting up the integral package                    ... done
Initializing the effective Hamiltonian             ... done
Starting the Coulomb interaction                   ... done (   0.2 sec)
Reading the grid                                   ... done
Mapping shells                                     ... done
Starting the XC term evaluation                    ... done (   1.7 sec)
  promolecular density results
     # of electrons  =     85.999584806
     EX              =   -107.207462289
     EC              =     -3.523251322
     EX+EC           =   -110.730713611
Transforming the Hamiltonian                       ... done (   0.0 sec)
Diagonalizing the Hamiltonian                      ... done (   0.0 sec)
Back transforming the eigenvectors                 ... done (   0.0 sec)
Now organizing SCF variables                       ... done
                      ------------------
                      INITIAL GUESS DONE (   2.0 sec)
                      ------------------
--------------
SCF ITERATIONS
--------------
ITER       Energy         Delta-E        Max-DP      RMS-DP      [F,P]     Damp
               ***  Starting incremental Fock matrix formation  ***
  0  -1720.5241744210   0.000000000000 0.12463355  0.00261945  0.2637399 0.7000
  1  -1720.5432582062  -0.019083785128 0.03211374  0.00102130  0.2527475 0.7000
                               ***Turning on DIIS***
  2  -1720.7398681907  -0.196609984579 0.08461314  0.00154903  0.0424744 0.0000
  3  -1720.8010764931  -0.061208302344 0.00821302  0.00023924  0.2709623 0.7000
  4  -1720.8431314018  -0.042054908702 0.00743503  0.00024059  0.2352989 0.7000
  5  -1720.8793953158  -0.036263914036 0.00616444  0.00020330  0.2021730 0.7000
  6  -1720.9074445690  -0.028049253144 0.00554435  0.00016653  0.1752005 0.7000
  7  -1720.9293659291  -0.021921360100 0.01921556  0.00042743  0.1532138 0.7000
  8  -1720.9767663739  -0.047400444796 0.03315134  0.00095543  0.0903912 0.0000
  9  -1721.0077217360  -0.030955362094 0.01317173  0.00020637  0.0476626 0.0000
 10  -1721.0125687786  -0.004847042605 0.00505315  0.00008525  0.0272218 0.0000
 11  -1721.0144037603  -0.001834981738 0.00246200  0.00005875  0.0157753 0.0000
 12  -1721.0151516275  -0.000747867240 0.00122323  0.00003582  0.0061430 0.0000
 13  -1721.0153322183  -0.000180590788 0.00057662  0.00001695  0.0013516 0.0000
 14  -1721.0153517856  -0.000019567281 0.00097855  0.00002725  0.0004052 0.0000
 15  -1721.0153362640   0.000015521613 0.00008794  0.00000194  0.0021663 0.0000
 16  -1721.0153408568  -0.000004592805 0.00002675  0.00000082  0.0018881 0.0000
 17  -1721.0153425298  -0.000001673022 0.00003359  0.00000057  0.0017850 0.0000
 18  -1721.0153419515   0.000000578331 0.00004991  0.00000196  0.0018462 0.0000
 19  -1721.0153428069  -0.000000855447 0.00103134  0.00002447  0.0016681 0.0000
               *** Restarting incremental Fock matrix formation ***
                                   *** Resetting DIIS ***
 20  -1721.0153401039   0.000002703009 0.00140335  0.00003997  0.0021313 0.0000
 21  -1721.0152798463   0.000060257652 0.00060780  0.00001783  0.0048712 0.0000
 22  -1721.0153430363  -0.000063190028 0.00036449  0.00000828  0.0016406 0.0000
 23  -1721.0153543760  -0.000011339697 0.00044606  0.00001196  0.0004538 0.0000
 24  -1721.0153529010   0.000001475049 0.00010527  0.00000309  0.0008749 0.0000
 25  -1721.0153551308  -0.000002229833 0.00009287  0.00000279  0.0004423 0.0000
 26  -1721.0153559648  -0.000000833971 0.00001125  0.00000031  0.0000678 0.0000
 27  -1721.0153559637   0.000000001087 0.00001052  0.00000022  0.0000261 0.0000
 28  -1721.0153559854  -0.000000021711 0.00000720  0.00000020  0.0000165 0.0000
 29  -1721.0153560185  -0.000000033124 0.00000230  0.00000007  0.0000049 0.0000
 30  -1721.0153560013   0.000000017162 0.00000106  0.00000002  0.0000022 0.0000
 31  -1721.0153559889   0.000000012466 0.00000042  0.00000001  0.0000011 0.0000
                            ***DIIS convergence achieved***

               *****************************************************
               *                     SUCCESS                       *
               *           SCF CONVERGED AFTER  32 CYCLES          *
               *****************************************************

Setting up the final grid:

General Integration Accuracy     IntAcc      ...  4.670
Radial Grid Type                 RadialGrid  ... Gauss-Chebyshev
Angular Grid (max. acc.)         AngularGrid ... Lebedev-302
Angular grid pruning method      GridPruning ... 3 (G Style)
Weight generation scheme         WeightScheme... Becke
Basis function cutoff            BFCut       ...    1.0000e-11
Integration weight cutoff        WCut        ...    1.0000e-14
Grids for H and He will be reduced by one unit

# of grid points (after initial pruning)     ...  87640 (   0.1 sec)
# of grid points (after weights+screening)   ...  80814 (   1.0 sec)
nearest neighbour list constructed           ...    0.0 sec
Grid point re-assignment to atoms done       ...    0.0 sec
Grid point division into batches done        ...    0.3 sec
Reduced shell lists constructed in    1.9 sec

Total number of grid points                  ...    80814
Total number of batches                      ...     1271
Average number of points per batch           ...       63
Average number of grid points per atom       ...     4253
Average number of shells per batch           ...    45.43 (61.39%)
Average number of basis functions per batch  ...    83.92 (56.70%)
Average number of large shells per batch     ...    32.84 (72.29%)
Average number of large basis fcns per batch ...    59.81 (71.27%)
Maximum spatial batch extension              ...  16.22, 17.21, 18.81 au
Average spatial batch extension              ...   2.30,  2.29,  2.29 au

Final grid set up in    3.0 sec
Final integration                            ... done (   2.8 sec)
Change in XC energy                          ...     0.000225941
Integrated number of electrons               ...    82.999863372
Previous integrated no of electrons          ...    82.998297148

----------------
TOTAL SCF ENERGY
----------------

Total Energy       :        -1721.01513007 Eh          -46831.20254 eV

Components:
Nuclear Repulsion  :          673.43675038 Eh           18325.14561 eV
Electronic Energy  :        -2394.45188045 Eh          -65156.34815 eV

One Electron Energy:        -3671.92042910 Eh          -99918.03461 eV
Two Electron Energy:         1277.46854865 Eh           34761.68646 eV

Virial components:
Potential Energy   :        -3436.50505695 Eh          -93512.05666 eV
Kinetic Energy     :         1715.48992688 Eh           46680.85412 eV
Virial Ratio       :            2.00322077


DFT components:
N(Alpha)           :       43.999933865277 electrons
N(Beta)            :       38.999929507168 electrons
N(Total)           :       82.999863372445 electrons
E(X)               :     -107.448183495031 Eh       
E(C)               :       -3.433171341079 Eh       
E(XC)              :     -110.881354836109 Eh       

---------------
SCF CONVERGENCE
---------------

  Last Energy change         ...   -1.8063e-08  Tolerance :   1.0000e-08
  Last MAX-Density change    ...    1.0052e-07  Tolerance :   1.0000e-07
  Last RMS-Density change    ...    2.7627e-09  Tolerance :   5.0000e-09
  Last DIIS Error            ...    2.5221e-07  Tolerance :   5.0000e-07

             **** THE GBW FILE WAS UPDATED (orca4.gbw) ****
             **** DENSITY FILE WAS UPDATED (orca4.scfp.tmp) ****
             **** ENERGY FILE WAS UPDATED (orca4.en.tmp) ****
----------------------
UHF SPIN CONTAMINATION
----------------------

Warning: in a DFT calculation there is little theoretical justification to 
         calculate <S**2> as in Hartree-Fock theory. We will do it anyways
         but you should keep in mind that the values have only limited relevance

Expectation value of <S**2>     :     8.753279
Ideal value S*(S+1) for S=2.5   :     8.750000
Deviation                       :     0.003279

----------------
ORBITAL ENERGIES
----------------
                 SPIN UP ORBITALS
  NO   OCC          E(Eh)            E(eV) 
   0   1.0000    -255.443713     -6950.9768 
   1   1.0000     -30.218960      -822.2997 
   2   1.0000     -26.149266      -711.5577 
   3   1.0000     -26.149264      -711.5576 
   4   1.0000     -26.149233      -711.5568 
   5   1.0000     -19.325611      -525.8766 
   6   1.0000     -19.325580      -525.8758 
   7   1.0000     -19.325335      -525.8691 
   8   1.0000     -19.325257      -525.8670 
   9   1.0000     -19.325239      -525.8665 
  10   1.0000     -19.325178      -525.8648 
  11   1.0000      -3.993480      -108.6681 
  12   1.0000      -2.804542       -76.3155 
  13   1.0000      -2.804523       -76.3150 
  14   1.0000      -2.804495       -76.3142 
  15   1.0000      -1.450439       -39.4685 
  16   1.0000      -1.441507       -39.2254 
  17   1.0000      -1.441247       -39.2183 
  18   1.0000      -1.441168       -39.2162 
  19   1.0000      -1.439568       -39.1726 
  20   1.0000      -1.439372       -39.1673 
  21   1.0000      -1.008708       -27.4483 
  22   1.0000      -1.008413       -27.4403 
  23   1.0000      -1.008382       -27.4395 
  24   1.0000      -1.006086       -27.3770 
  25   1.0000      -1.005786       -27.3688 
  26   1.0000      -1.005758       -27.3681 
  27   1.0000      -0.972217       -26.4554 
  28   1.0000      -0.968183       -26.3456 
  29   1.0000      -0.968017       -26.3411 
  30   1.0000      -0.917135       -24.9565 
  31   1.0000      -0.916733       -24.9456 
  32   1.0000      -0.916641       -24.9431 
  33   1.0000      -0.889975       -24.2175 
  34   1.0000      -0.889946       -24.2167 
  35   1.0000      -0.889887       -24.2151 
  36   1.0000      -0.803003       -21.8508 
  37   1.0000      -0.802963       -21.8497 
  38   1.0000      -0.802725       -21.8433 
  39   1.0000      -0.793480       -21.5917 
  40   1.0000      -0.793427       -21.5903 
  41   1.0000      -0.793266       -21.5859 
  42   1.0000      -0.788653       -21.4603 
  43   1.0000      -0.788611       -21.4592 
  44   0.0000      -0.494143       -13.4463 
  45   0.0000      -0.436550       -11.8791 
  46   0.0000      -0.435707       -11.8562 
  47   0.0000      -0.435384       -11.8474 
  48   0.0000      -0.403216       -10.9721 
  49   0.0000      -0.402791       -10.9605 
  50   0.0000      -0.363611        -9.8944 
  51   0.0000      -0.363587        -9.8937 
  52   0.0000      -0.363243        -9.8843 
  53   0.0000      -0.359701        -9.7880 
  54   0.0000      -0.359241        -9.7755 
  55   0.0000      -0.359124        -9.7723 
  56   0.0000      -0.344712        -9.3801 
  57   0.0000      -0.249444        -6.7877 
  58   0.0000      -0.248886        -6.7725 
  59   0.0000      -0.248482        -6.7615 
  60   0.0000      -0.218724        -5.9518 
  61   0.0000      -0.073172        -1.9911 
  62   0.0000      -0.072860        -1.9826 
  63   0.0000      -0.072337        -1.9684 
  64   0.0000       0.047309         1.2873 
  65   0.0000       0.048038         1.3072 
  66   0.0000       0.048451         1.3184 
  67   0.0000       0.119691         3.2570 
  68   0.0000       0.120225         3.2715 
  69   0.0000       0.131274         3.5722 
  70   0.0000       0.155739         4.2379 
  71   0.0000       0.156018         4.2455 
  72   0.0000       0.156489         4.2583 
  73   0.0000       0.226102         6.1525 
  74   0.0000       0.226562         6.1651 
  75   0.0000       0.226570         6.1653 
  76   0.0000       0.369657        10.0589 
  77   0.0000       0.370611        10.0848 
  78   0.0000       0.370831        10.0908 
  79   0.0000       0.431139        11.7319 
  80   0.0000       0.431481        11.7412 
  81   0.0000       0.435567        11.8524 
  82   0.0000       0.436487        11.8774 
  83   0.0000       0.436877        11.8880 
  84   0.0000       0.552405        15.0317 
  85   0.0000       0.552990        15.0476 
  86   0.0000       0.553182        15.0528 
  87   0.0000       0.561709        15.2849 
  88   0.0000       0.562593        15.3089 
  89   0.0000       0.595089        16.1932 
  90   0.0000       0.595909        16.2155 
  91   0.0000       0.596317        16.2266 
  92   0.0000       0.614416        16.7191 
  93   0.0000       0.679937        18.5020 
  94   0.0000       0.680919        18.5287 
  95   0.0000       0.708393        19.2764 
  96   0.0000       0.708659        19.2836 
  97   0.0000       0.708982        19.2924 
  98   0.0000       0.870571        23.6894 
  99   0.0000       0.871180        23.7060 
 100   0.0000       0.871907        23.7258 
 101   0.0000       1.009577        27.4720 
 102   0.0000       1.265616        34.4392 
 103   0.0000       1.266488        34.4629 
 104   0.0000       1.267582        34.4926 
 105   0.0000       1.918009        52.1917 
 106   0.0000       1.930979        52.5446 
 107   0.0000       1.931177        52.5500 
 108   0.0000       1.931602        52.5616 
 109   0.0000       1.931802        52.5670 
 110   0.0000       1.932877        52.5962 
 111   0.0000       1.933155        52.6038 
 112   0.0000       1.981256        53.9127 
 113   0.0000       1.981862        53.9292 
 114   0.0000       1.982715        53.9524 
 115   0.0000       1.986399        54.0527 
 116   0.0000       1.986692        54.0606 
 117   0.0000       1.988133        54.0999 
 118   0.0000       2.147203        58.4284 
 119   0.0000       2.148505        58.4638 
 120   0.0000       2.149679        58.4957 
 121   0.0000       2.237189        60.8770 
 122   0.0000       2.238492        60.9125 
 123   0.0000       2.245210        61.0953 
 124   0.0000       2.257001        61.4161 
 125   0.0000       2.258443        61.4554 
 126   0.0000       2.261471        61.5377 
 127   0.0000       2.328324        63.3569 
 128   0.0000       2.328947        63.3739 
 129   0.0000       2.384296        64.8800 
 130   0.0000       2.385105        64.9020 
 131   0.0000       2.386770        64.9473 
 132   0.0000       2.398981        65.2796 
 133   0.0000       2.399836        65.3029 
 134   0.0000       2.401666        65.3527 
 135   0.0000       2.799268        76.1720 
 136   0.0000       2.822608        76.8071 
 137   0.0000       2.822843        76.8135 
 138   0.0000       2.822995        76.8176 
 139   0.0000       3.324378        90.4609 
 140   0.0000       3.324803        90.4725 
 141   0.0000       5.196779       141.4115 
 142   0.0000       5.199809       141.4940 
 143   0.0000       5.199907       141.4967 
 144   0.0000       5.200084       141.5015 
 145   0.0000       5.224384       142.1627 
 146   0.0000       5.224621       142.1692 
 147   0.0000       5.224759       142.1729 

                 SPIN DOWN ORBITALS
  NO   OCC          E(Eh)            E(eV) 
   0   1.0000    -255.442659     -6950.9481 
   1   1.0000     -30.137794      -820.0911 
   2   1.0000     -26.087783      -709.8847 
   3   1.0000     -26.087779      -709.8846 
   4   1.0000     -26.087755      -709.8839 
   5   1.0000     -19.321998      -525.7783 
   6   1.0000     -19.321968      -525.7775 
   7   1.0000     -19.321746      -525.7714 
   8   1.0000     -19.321662      -525.7692 
   9   1.0000     -19.321638      -525.7685 
  10   1.0000     -19.321576      -525.7668 
  11   1.0000      -3.813409      -103.7681 
  12   1.0000      -2.628367       -71.5215 
  13   1.0000      -2.628361       -71.5213 
  14   1.0000      -2.628349       -71.5210 
  15   1.0000      -1.443870       -39.2897 
  16   1.0000      -1.435091       -39.0508 
  17   1.0000      -1.434835       -39.0438 
  18   1.0000      -1.434776       -39.0422 
  19   1.0000      -1.432939       -38.9923 
  20   1.0000      -1.432757       -38.9873 
  21   1.0000      -1.003638       -27.3104 
  22   1.0000      -1.003337       -27.3022 
  23   1.0000      -1.003309       -27.3014 
  24   1.0000      -1.002798       -27.2875 
  25   1.0000      -1.002494       -27.2792 
  26   1.0000      -1.002469       -27.2786 
  27   1.0000      -0.960504       -26.1366 
  28   1.0000      -0.922844       -25.1119 
  29   1.0000      -0.922594       -25.1050 
  30   1.0000      -0.908477       -24.7209 
  31   1.0000      -0.908046       -24.7092 
  32   1.0000      -0.907933       -24.7061 
  33   1.0000      -0.804516       -21.8920 
  34   1.0000      -0.804425       -21.8895 
  35   1.0000      -0.804185       -21.8830 
  36   1.0000      -0.792472       -21.5643 
  37   1.0000      -0.792435       -21.5632 
  38   1.0000      -0.792156       -21.5557 
  39   0.0000      -0.712435       -19.3863 
  40   0.0000      -0.712334       -19.3836 
  41   0.0000      -0.712239       -19.3810 
  42   0.0000      -0.664567       -18.0838 
  43   0.0000      -0.664508       -18.0822 
  44   0.0000      -0.486089       -13.2271 
  45   0.0000      -0.432821       -11.7777 
  46   0.0000      -0.431940       -11.7537 
  47   0.0000      -0.431590       -11.7442 
  48   0.0000      -0.399801       -10.8791 
  49   0.0000      -0.399383       -10.8678 
  50   0.0000      -0.360442        -9.8081 
  51   0.0000      -0.360408        -9.8072 
  52   0.0000      -0.360088        -9.7985 
  53   0.0000      -0.357147        -9.7185 
  54   0.0000      -0.356663        -9.7053 
  55   0.0000      -0.356563        -9.7026 
  56   0.0000      -0.305777        -8.3206 
  57   0.0000      -0.229854        -6.2546 
  58   0.0000      -0.229010        -6.2317 
  59   0.0000      -0.228591        -6.2203 
  60   0.0000      -0.216306        -5.8860 
  61   0.0000      -0.054872        -1.4931 
  62   0.0000      -0.054480        -1.4825 
  63   0.0000      -0.053824        -1.4646 
  64   0.0000       0.053966         1.4685 
  65   0.0000       0.054712         1.4888 
  66   0.0000       0.055172         1.5013 
  67   0.0000       0.121859         3.3160 
  68   0.0000       0.122382         3.3302 
  69   0.0000       0.133726         3.6389 
  70   0.0000       0.158709         4.3187 
  71   0.0000       0.158948         4.3252 
  72   0.0000       0.159442         4.3386 
  73   0.0000       0.246277         6.7015 
  74   0.0000       0.246613         6.7107 
  75   0.0000       0.246960         6.7201 
  76   0.0000       0.377644        10.2762 
  77   0.0000       0.378538        10.3005 
  78   0.0000       0.378816        10.3081 
  79   0.0000       0.447654        12.1813 
  80   0.0000       0.448704        12.2098 
  81   0.0000       0.449186        12.2230 
  82   0.0000       0.463774        12.6199 
  83   0.0000       0.464098        12.6288 
  84   0.0000       0.565146        15.3784 
  85   0.0000       0.565748        15.3948 
  86   0.0000       0.566091        15.4041 
  87   0.0000       0.570855        15.5337 
  88   0.0000       0.571639        15.5551 
  89   0.0000       0.599351        16.3092 
  90   0.0000       0.600154        16.3310 
  91   0.0000       0.600576        16.3425 
  92   0.0000       0.619371        16.8539 
  93   0.0000       0.692773        18.8513 
  94   0.0000       0.693767        18.8784 
  95   0.0000       0.724257        19.7080 
  96   0.0000       0.724593        19.7172 
  97   0.0000       0.725172        19.7329 
  98   0.0000       0.890339        24.2274 
  99   0.0000       0.890843        24.2411 
 100   0.0000       0.891895        24.2697 
 101   0.0000       1.032928        28.1074 
 102   0.0000       1.337905        36.4062 
 103   0.0000       1.338852        36.4320 
 104   0.0000       1.339891        36.4603 
 105   0.0000       1.939006        52.7630 
 106   0.0000       1.939310        52.7713 
 107   0.0000       1.939594        52.7790 
 108   0.0000       1.939918        52.7878 
 109   0.0000       1.940881        52.8140 
 110   0.0000       1.941288        52.8251 
 111   0.0000       1.963811        53.4380 
 112   0.0000       1.996017        54.3144 
 113   0.0000       1.996548        54.3288 
 114   0.0000       1.997369        54.3512 
 115   0.0000       2.009369        54.6777 
 116   0.0000       2.009708        54.6869 
 117   0.0000       2.011112        54.7251 
 118   0.0000       2.156005        58.6679 
 119   0.0000       2.157326        58.7038 
 120   0.0000       2.158465        58.7348 
 121   0.0000       2.245065        61.0913 
 122   0.0000       2.246447        61.1289 
 123   0.0000       2.252812        61.3021 
 124   0.0000       2.266314        61.6695 
 125   0.0000       2.267796        61.7099 
 126   0.0000       2.270776        61.7910 
 127   0.0000       2.374507        64.6136 
 128   0.0000       2.375281        64.6347 
 129   0.0000       2.391787        65.0838 
 130   0.0000       2.392478        65.1026 
 131   0.0000       2.394110        65.1471 
 132   0.0000       2.404572        65.4317 
 133   0.0000       2.405399        65.4542 
 134   0.0000       2.407187        65.5029 
 135   0.0000       2.872000        78.1511 
 136   0.0000       2.936530        79.9071 
 137   0.0000       2.936976        79.9192 
 138   0.0000       2.937022        79.9204 
 139   0.0000       3.413386        92.8829 
 140   0.0000       3.413748        92.8928 
 141   0.0000       5.373365       146.2167 
 142   0.0000       5.376849       146.3115 
 143   0.0000       5.376969       146.3148 
 144   0.0000       5.377127       146.3191 
 145   0.0000       5.401089       146.9711 
 146   0.0000       5.401273       146.9761 
 147   0.0000       5.401387       146.9792 

                    ********************************
                    * MULLIKEN POPULATION ANALYSIS *
                    ********************************

--------------------------------------------
MULLIKEN ATOMIC CHARGES AND SPIN POPULATIONS
--------------------------------------------
   0 Fe:    1.083865    4.209882
   1 O :   -0.553067    0.127159
   2 H :    0.436733    0.002447
   3 O :   -0.554176    0.126333
   4 H :    0.436376    0.002405
   5 O :   -0.554603    0.126854
   6 H :    0.436588    0.002431
   7 O :   -0.553066    0.127202
   8 H :    0.436768    0.002430
   9 O :   -0.554062    0.126458
  10 H :    0.436702    0.002415
  11 O :   -0.554464    0.127007
  12 H :    0.436628    0.002422
  13 H :    0.436719    0.002430
  14 H :    0.436533    0.002412
  15 H :    0.436726    0.002429
  16 H :    0.436438    0.002402
  17 H :    0.436756    0.002454
  18 H :    0.436608    0.002427
Sum of atomic charges         :    3.0000000
Sum of atomic spin populations:    5.0000000

-----------------------------------------------------
MULLIKEN REDUCED ORBITAL CHARGES AND SPIN POPULATIONS
-----------------------------------------------------
CHARGE
  0 Fes       :     6.440340  s :     6.440340
      pz      :     4.173430  p :    12.518822
      px      :     4.172097
      py      :     4.173296
      dz2     :     1.186597  d :     5.956757
      dxz     :     1.182036
      dyz     :     1.207336
      dx2y2   :     1.170096
      dxy     :     1.210692
      f0      :     0.000031  f :     0.000216
      f+1     :     0.000014
      f-1     :     0.000043
      f+2     :     0.000024
      f-2     :     0.000046
      f+3     :     0.000020
      f-3     :     0.000039
  1 O s       :     3.754112  s :     3.754112
      pz      :     1.610342  p :     4.789007
      px      :     1.548459
      py      :     1.630205
      dz2     :     0.001178  d :     0.009949
      dxz     :     0.004130
      dyz     :     0.001286
      dx2y2   :     0.001039
      dxy     :     0.002316
  2 H s       :     0.563267  s :     0.563267
  3 O s       :     3.754839  s :     3.754839
      pz      :     1.432462  p :     4.789441
      px      :     1.764953
      py      :     1.592026
      dz2     :     0.003941  d :     0.009896
      dxz     :     0.001775
      dyz     :     0.000914
      dx2y2   :     0.001007
      dxy     :     0.002259
  4 H s       :     0.563624  s :     0.563624
  5 O s       :     3.754873  s :     3.754873
      pz      :     1.749026  p :     4.789812
      px      :     1.476175
      py      :     1.564611
      dz2     :     0.001067  d :     0.009918
      dxz     :     0.000607
      dyz     :     0.002872
      dx2y2   :     0.005075
      dxy     :     0.000299
  6 H s       :     0.563412  s :     0.563412
  7 O s       :     3.754099  s :     3.754099
      pz      :     1.609545  p :     4.789018
      px      :     1.548886
      py      :     1.630587
      dz2     :     0.001190  d :     0.009949
      dxz     :     0.004129
      dyz     :     0.001286
      dx2y2   :     0.001020
      dxy     :     0.002323
  8 H s       :     0.563232  s :     0.563232
  9 O s       :     3.754849  s :     3.754849
      pz      :     1.430751  p :     4.789317
      px      :     1.764394
      py      :     1.594172
      dz2     :     0.003977  d :     0.009895
      dxz     :     0.001743
      dyz     :     0.000915
      dx2y2   :     0.000979
      dxy     :     0.002281
 10 H s       :     0.563298  s :     0.563298
 11 O s       :     3.754875  s :     3.754875
      pz      :     1.747759  p :     4.789671
      px      :     1.476260
      py      :     1.565652
      dz2     :     0.001061  d :     0.009919
      dxz     :     0.000613
      dyz     :     0.002883
      dx2y2   :     0.005070
      dxy     :     0.000292
 12 H s       :     0.563372  s :     0.563372
 13 H s       :     0.563281  s :     0.563281
 14 H s       :     0.563467  s :     0.563467
 15 H s       :     0.563274  s :     0.563274
 16 H s       :     0.563562  s :     0.563562
 17 H s       :     0.563244  s :     0.563244
 18 H s       :     0.563392  s :     0.563392

SPIN
  0 Fes       :     0.029993  s :     0.029993
      pz      :     0.006796  p :     0.020647
      px      :     0.007008
      py      :     0.006842
      dz2     :     0.834227  d :     4.159233
      dxz     :     0.836512
      dyz     :     0.823675
      dx2y2   :     0.843039
      dxy     :     0.821781
      f0      :     0.000001  f :     0.000009
      f+1     :     0.000001
      f-1     :     0.000002
      f+2     :     0.000001
      f-2     :     0.000002
      f+3     :     0.000001
      f-3     :     0.000002
  1 O s       :     0.010444  s :     0.010444
      pz      :     0.044722  p :     0.116294
      px      :     0.028785
      py      :     0.042787
      dz2     :     0.000174  d :     0.000421
      dxz     :     0.000033
      dyz     :     0.000211
      dx2y2   :     0.000028
      dxy     :    -0.000024
  2 H s       :     0.002447  s :     0.002447
  3 O s       :     0.010324  s :     0.010324
      pz      :     0.015514  p :     0.115589
      px      :     0.061160
      py      :     0.038916
      dz2     :    -0.000010  d :     0.000421
      dxz     :     0.000089
      dyz     :     0.000072
      dx2y2   :     0.000117
      dxy     :     0.000152
  4 H s       :     0.002405  s :     0.002405
  5 O s       :     0.010339  s :     0.010339
      pz      :     0.056145  p :     0.116096
      px      :     0.025873
      py      :     0.034078
      dz2     :     0.000075  d :     0.000420
      dxz     :     0.000105
      dyz     :     0.000011
      dx2y2   :     0.000055
      dxy     :     0.000173
  6 H s       :     0.002431  s :     0.002431
  7 O s       :     0.010449  s :     0.010449
      pz      :     0.044527  p :     0.116331
      px      :     0.028859
      py      :     0.042945
      dz2     :     0.000174  d :     0.000421
      dxz     :     0.000033
      dyz     :     0.000211
      dx2y2   :     0.000028
      dxy     :    -0.000025
  8 H s       :     0.002430  s :     0.002430
  9 O s       :     0.010319  s :     0.010319
      pz      :     0.015304  p :     0.115718
      px      :     0.061218
      py      :     0.039197
      dz2     :    -0.000011  d :     0.000420
      dxz     :     0.000089
      dyz     :     0.000072
      dx2y2   :     0.000118
      dxy     :     0.000152
 10 H s       :     0.002415  s :     0.002415
 11 O s       :     0.010339  s :     0.010339
      pz      :     0.056109  p :     0.116250
      px      :     0.025882
      py      :     0.034259
      dz2     :     0.000075  d :     0.000419
      dxz     :     0.000105
      dyz     :     0.000011
      dx2y2   :     0.000055
      dxy     :     0.000174
 12 H s       :     0.002422  s :     0.002422
 13 H s       :     0.002430  s :     0.002430
 14 H s       :     0.002412  s :     0.002412
 15 H s       :     0.002429  s :     0.002429
 16 H s       :     0.002402  s :     0.002402
 17 H s       :     0.002454  s :     0.002454
 18 H s       :     0.002427  s :     0.002427


                     *******************************
                     * LOEWDIN POPULATION ANALYSIS *
                     *******************************

-------------------------------------------
LOEWDIN ATOMIC CHARGES AND SPIN POPULATIONS
-------------------------------------------
   0 Fe:    0.487300    4.177766
   1 O :   -0.326666    0.133201
   2 H :    0.373021    0.002034
   3 O :   -0.327574    0.132521
   4 H :    0.372971    0.002010
   5 O :   -0.327303    0.133090
   6 H :    0.372924    0.002036
   7 O :   -0.326584    0.133244
   8 H :    0.373082    0.002026
   9 O :   -0.327558    0.132635
  10 H :    0.372947    0.002021
  11 O :   -0.327249    0.133233
  12 H :    0.372948    0.002029
  13 H :    0.372968    0.002033
  14 H :    0.372803    0.002017
  15 H :    0.373053    0.002026
  16 H :    0.373016    0.002008
  17 H :    0.373037    0.002040
  18 H :    0.372864    0.002030

----------------------------------------------------
LOEWDIN REDUCED ORBITAL CHARGES AND SPIN POPULATIONS
----------------------------------------------------
CHARGE
  0 Fes       :     6.420027  s :     6.420027
      pz      :     4.273383  p :    12.819544
      px      :     4.272768
      py      :     4.273393
      dz2     :     1.241548  d :     6.272830
      dxz     :     1.229636
      dyz     :     1.297144
      dx2y2   :     1.198653
      dxy     :     1.305849
      f0      :     0.000043  f :     0.000299
      f+1     :     0.000017
      f-1     :     0.000061
      f+2     :     0.000033
      f-2     :     0.000065
      f+3     :     0.000026
      f-3     :     0.000055
  1 O s       :     3.524089  s :     3.524089
      pz      :     1.594761  p :     4.786380
      px      :     1.562991
      py      :     1.628627
      dz2     :     0.002092  d :     0.016198
      dxz     :     0.006576
      dyz     :     0.002137
      dx2y2   :     0.001752
      dxy     :     0.003641
  2 H s       :     0.626979  s :     0.626979
  3 O s       :     3.524428  s :     3.524428
      pz      :     1.446951  p :     4.786972
      px      :     1.751157
      py      :     1.588865
      dz2     :     0.006465  d :     0.016174
      dxz     :     0.002895
      dyz     :     0.001844
      dx2y2   :     0.001573
      dxy     :     0.003398
  4 H s       :     0.627029  s :     0.627029
  5 O s       :     3.524514  s :     3.524514
      pz      :     1.746802  p :     4.786605
      px      :     1.472601
      py      :     1.567203
      dz2     :     0.001542  d :     0.016183
      dxz     :     0.001118
      dyz     :     0.004304
      dx2y2   :     0.008282
      dxy     :     0.000936
  6 H s       :     0.627076  s :     0.627076
  7 O s       :     3.524046  s :     3.524046
      pz      :     1.594022  p :     4.786340
      px      :     1.563374
      py      :     1.628943
      dz2     :     0.002110  d :     0.016198
      dxz     :     0.006576
      dyz     :     0.002138
      dx2y2   :     0.001724
      dxy     :     0.003649
  8 H s       :     0.626918  s :     0.626918
  9 O s       :     3.524474  s :     3.524474
      pz      :     1.445383  p :     4.786912
      px      :     1.750627
      py      :     1.590903
      dz2     :     0.006520  d :     0.016172
      dxz     :     0.002850
      dyz     :     0.001845
      dx2y2   :     0.001528
      dxy     :     0.003428
 10 H s       :     0.627053  s :     0.627053
 11 O s       :     3.524547  s :     3.524547
      pz      :     1.745635  p :     4.786519
      px      :     1.472714
      py      :     1.568170
      dz2     :     0.001536  d :     0.016183
      dxz     :     0.001129
      dyz     :     0.004321
      dx2y2   :     0.008273
      dxy     :     0.000924
 12 H s       :     0.627052  s :     0.627052
 13 H s       :     0.627032  s :     0.627032
 14 H s       :     0.627197  s :     0.627197
 15 H s       :     0.626947  s :     0.626947
 16 H s       :     0.626984  s :     0.626984
 17 H s       :     0.626963  s :     0.626963
 18 H s       :     0.627136  s :     0.627136

SPIN
  0 Fes       :     0.013841  s :     0.013841
      pz      :     0.003543  p :     0.010766
      px      :     0.003651
      py      :     0.003572
      dz2     :     0.832805  d :     4.153153
      dxz     :     0.834885
      dyz     :     0.823164
      dx2y2   :     0.840912
      dxy     :     0.821388
      f0      :     0.000001  f :     0.000005
      f+1     :     0.000000
      f-1     :     0.000001
      f+2     :     0.000001
      f-2     :     0.000001
      f+3     :     0.000001
      f-3     :     0.000001
  1 O s       :     0.014950  s :     0.014950
      pz      :     0.044944  p :     0.117186
      px      :     0.029087
      py      :     0.043154
      dz2     :     0.000334  d :     0.001065
      dxz     :     0.000119
      dyz     :     0.000548
      dx2y2   :     0.000059
      dxy     :     0.000005
  2 H s       :     0.002034  s :     0.002034
  3 O s       :     0.014867  s :     0.014867
      pz      :     0.015646  p :     0.116591
      px      :     0.061725
      py      :     0.039220
      dz2     :     0.000027  d :     0.001062
      dxz     :     0.000243
      dyz     :     0.000146
      dx2y2   :     0.000170
      dxy     :     0.000476
  4 H s       :     0.002010  s :     0.002010
  5 O s       :     0.014904  s :     0.014904
      pz      :     0.056716  p :     0.117123
      px      :     0.026003
      py      :     0.034404
      dz2     :     0.000216  d :     0.001063
      dxz     :     0.000164
      dyz     :     0.000136
      dx2y2   :     0.000161
      dxy     :     0.000386
  6 H s       :     0.002036  s :     0.002036
  7 O s       :     0.014957  s :     0.014957
      pz      :     0.044753  p :     0.117222
      px      :     0.029162
      py      :     0.043307
      dz2     :     0.000335  d :     0.001066
      dxz     :     0.000119
      dyz     :     0.000548
      dx2y2   :     0.000059
      dxy     :     0.000005
  8 H s       :     0.002026  s :     0.002026
  9 O s       :     0.014856  s :     0.014856
      pz      :     0.015434  p :     0.116718
      px      :     0.061776
      py      :     0.039508
      dz2     :     0.000026  d :     0.001061
      dxz     :     0.000241
      dyz     :     0.000147
      dx2y2   :     0.000170
      dxy     :     0.000477
 10 H s       :     0.002021  s :     0.002021
 11 O s       :     0.014898  s :     0.014898
      pz      :     0.056679  p :     0.117274
      px      :     0.026011
      py      :     0.034584
      dz2     :     0.000216  d :     0.001061
      dxz     :     0.000163
      dyz     :     0.000136
      dx2y2   :     0.000160
      dxy     :     0.000387
 12 H s       :     0.002029  s :     0.002029
 13 H s       :     0.002033  s :     0.002033
 14 H s       :     0.002017  s :     0.002017
 15 H s       :     0.002026  s :     0.002026
 16 H s       :     0.002008  s :     0.002008
 17 H s       :     0.002040  s :     0.002040
 18 H s       :     0.002030  s :     0.002030


                      *****************************
                      * MAYER POPULATION ANALYSIS *
                      *****************************

  NA   - Mulliken gross atomic population
  ZA   - Total nuclear charge
  QA   - Mulliken gross atomic charge
  VA   - Mayer's total valence
  BVA  - Mayer's bonded valence
  FA   - Mayer's free valence

  ATOM       NA         ZA         QA         VA         BVA        FA
  0 Fe    24.9161    26.0000     1.0839     6.7633     3.2355     3.5278
  1 O      8.5531     8.0000    -0.5531     2.1329     2.1241     0.0089
  2 H      0.5633     1.0000     0.4367     0.7951     0.7951     0.0000
  3 O      8.5542     8.0000    -0.5542     2.1299     2.1212     0.0087
  4 H      0.5636     1.0000     0.4364     0.7953     0.7953     0.0000
  5 O      8.5546     8.0000    -0.5546     2.1292     2.1204     0.0088
  6 H      0.5634     1.0000     0.4366     0.7952     0.7952     0.0000
  7 O      8.5531     8.0000    -0.5531     2.1330     2.1241     0.0089
  8 H      0.5632     1.0000     0.4368     0.7950     0.7950     0.0000
  9 O      8.5541     8.0000    -0.5541     2.1302     2.1214     0.0088
 10 H      0.5633     1.0000     0.4367     0.7952     0.7952     0.0000
 11 O      8.5545     8.0000    -0.5545     2.1295     2.1206     0.0089
 12 H      0.5634     1.0000     0.4366     0.7952     0.7952     0.0000
 13 H      0.5633     1.0000     0.4367     0.7952     0.7952     0.0000
 14 H      0.5635     1.0000     0.4365     0.7953     0.7953     0.0000
 15 H      0.5633     1.0000     0.4367     0.7951     0.7951     0.0000
 16 H      0.5636     1.0000     0.4364     0.7953     0.7953     0.0000
 17 H      0.5632     1.0000     0.4368     0.7951     0.7950     0.0000
 18 H      0.5634     1.0000     0.4366     0.7952     0.7952     0.0000

  Mayer bond orders larger than 0.1
B(  0-Fe,  1-O ) :   0.5241 B(  0-Fe,  3-O ) :   0.5213 B(  0-Fe,  5-O ) :   0.5198 
B(  0-Fe,  7-O ) :   0.5242 B(  0-Fe,  9-O ) :   0.5216 B(  0-Fe, 11-O ) :   0.5202 
B(  1-O ,  2-H ) :   0.7750 B(  1-O , 15-H ) :   0.7749 B(  3-O ,  4-H ) :   0.7751 
B(  3-O , 13-H ) :   0.7750 B(  5-O ,  6-H ) :   0.7751 B(  5-O , 18-H ) :   0.7752 
B(  7-O ,  8-H ) :   0.7749 B(  7-O , 17-H ) :   0.7750 B(  9-O , 10-H ) :   0.7750 
B(  9-O , 16-H ) :   0.7751 B( 11-O , 12-H ) :   0.7751 B( 11-O , 14-H ) :   0.7753 


-------
TIMINGS
-------

Total SCF time: 0 days 0 hours 1 min 8 sec 

Total time                  ....      68.785 sec
Sum of individual times     ....      68.221 sec  ( 99.2%)

Fock matrix formation       ....      59.918 sec  ( 87.1%)
  Coulomb formation         ....      28.926 sec  ( 48.3% of F)
  Split-RI-J                ....      25.755 sec  ( 43.0% of F)
  XC integration            ....      29.592 sec  ( 49.4% of F)
    Basis function eval.    ....       7.171 sec  ( 24.2% of XC)
    Density eval.           ....       6.870 sec  ( 23.2% of XC)
    XC-Functional eval.     ....       2.307 sec  (  7.8% of XC)
    XC-Potential eval.      ....       6.512 sec  ( 22.0% of XC)
Diagonalization             ....       0.715 sec  (  1.0%)
Density matrix formation    ....       0.053 sec  (  0.1%)
Population analysis         ....       0.144 sec  (  0.2%)
Initial guess               ....       2.022 sec  (  2.9%)
Orbital Transformation      ....       0.000 sec  (  0.0%)
Orbital Orthonormalization  ....       0.000 sec  (  0.0%)
DIIS solution               ....       1.499 sec  (  2.2%)
Grid generation             ....       3.871 sec  (  5.6%)

-------------------------   --------------------
FINAL SINGLE POINT ENERGY     -1721.015130065577
-------------------------   --------------------

------------------------------------------------------------------------------
                         ORCA SCF GRADIENT CALCULATION
------------------------------------------------------------------------------

Gradient of the Kohn-Sham DFT energy:
Kohn-Sham wavefunction type      ... UKS
Hartree-Fock exchange scaling    ...    0.000
Number of operators              ...    2
Number of atoms                  ...   19
Basis set dimensions             ...  148
Integral neglect threshold       ... 2.5e-11
Integral primitive cutoff        ... 2.5e-12

Nuclear repulsion gradient       ... done
One Electron Gradient            ... done
Pre-screening matrix             ... done
RI-J gradient                    ... done
Exchange-correlation gradient    ... done

------------------
CARTESIAN GRADIENT
------------------

   1   Fe  :   -0.000073147    0.000015851   -0.000031307
   2   O   :    0.000083426   -0.000079810    0.000128750
   3   H   :   -0.000111242   -0.000083586   -0.000059168
   4   O   :    0.000117550   -0.000083356   -0.000011648
   5   H   :   -0.000092182    0.000111471    0.000073017
   6   O   :   -0.000103227   -0.000231665   -0.000108540
   7   H   :    0.000066907   -0.000017470    0.000078733
   8   O   :   -0.000062894    0.000046460   -0.000055135
   9   H   :   -0.000121566   -0.000062306    0.000074365
  10   O   :   -0.000006865    0.000034477    0.000018853
  11   H   :   -0.000078139   -0.000001176    0.000025807
  12   O   :    0.000172435    0.000263178    0.000092858
  13   H   :   -0.000080105    0.000020613   -0.000079290
  14   H   :    0.000022316   -0.000021562   -0.000030187
  15   H   :   -0.000031143   -0.000190479   -0.000037459
  16   H   :    0.000094424    0.000078681   -0.000077875
  17   H   :    0.000118595   -0.000094162   -0.000060881
  18   H   :    0.000078741    0.000098193    0.000023142
  19   H   :    0.000007887    0.000196392    0.000037043

Norm of the cartesian gradient     ...    0.000707650
RMS gradient                       ...    0.000093731
MAX gradient                       ...    0.000263178

-------
TIMINGS
-------

Total SCF gradient time            ...       26.142 sec

One electron gradient       ....       0.332 sec  (  1.3%)
Prescreening matrices       ....       0.961 sec  (  3.7%)
RI-J Coulomb gradient       ....       6.463 sec  ( 24.7%)
XC gradient                 ....      17.736 sec  ( 67.8%)
------------------------------------------------------------------------------
                         ORCA GEOMETRY RELAXATION STEP
------------------------------------------------------------------------------

Reading the OPT-File                    .... done
Getting information on internals        .... done
Copying old internal coords+grads       .... done
Making the new internal coordinates     .... (new redundants).... done
Validating the new internal coordinates .... (new redundants).... done
Calculating the B-matrix                .... done
Calculating the G,G- and P matrices     .... done
Transforming gradient to internals      .... done
Projecting the internal gradient        .... done
Number of atoms                         ....  19
Number of internal coordinates          .... 108
Current Energy                          .... -1721.015130066 Eh
Current gradient norm                   ....     0.000707650 Eh/bohr
Maximum allowed component of the step   ....  0.300
Current trust radius                    ....  0.300
Evaluating the initial hessian          ....  (Almloef) done
Projecting the Hessian                  .... done
Forming the augmented Hessian           .... done
Diagonalizing the augmented Hessian     .... done
Last element of RFO vector              ....  0.998084855
Lowest eigenvalues of augmented Hessian:
 -0.000009919  0.002080252  0.002080546  0.002081942  0.002272186
Length of the computed step             ....  0.061978390
The final length of the internal step   ....  0.061978390
Converting the step to cartesian space:
 Initial RMS(Int)=    0.0059638734
Transforming coordinates:
 Iter   0:  RMS(Cart)=    0.0049892325 RMS(Int)=    1.7082472708
 Iter   1:  RMS(Cart)=    0.0000285010 RMS(Int)=    0.0000207406
 Iter   2:  RMS(Cart)=    0.0000003583 RMS(Int)=    0.0000004057
 Iter   3:  RMS(Cart)=    0.0000000044 RMS(Int)=    0.0000000032
done
Storing new coordinates                 .... done

                                .--------------------.
          ----------------------|Geometry convergence|---------------------
          Item                value                 Tolerance   Converged
          -----------------------------------------------------------------
          RMS gradient        0.00005215            0.00010000      YES
          MAX gradient        0.00015319            0.00030000      YES
          RMS step            0.00596387            0.00200000      NO
          MAX step            0.01869915            0.00400000      NO
          ....................................................
          Max(Bonds)      0.0002      Max(Angles)    0.01
          Max(Dihed)        1.07      Max(Improp)    0.00
          -----------------------------------------------------------------

The optimization has not yet converged - more geometry cycles are needed


    ---------------------------------------------------------------------------
                         Redundant Internal Coordinates
                            (Angstroem and degrees)

        Definition                    Value    dE/dq     Step     New-Value
    ----------------------------------------------------------------------------
     1. B(O   1,Fe  0)                2.0673 -0.000059  0.0001    2.0674   
     2. B(H   2,O   1)                0.9963 -0.000150  0.0002    0.9964   
     3. B(O   3,Fe  0)                2.0675 -0.000039  0.0000    2.0675   
     4. B(H   4,O   3)                0.9963  0.000153 -0.0002    0.9961   
     5. B(O   5,Fe  0)                2.0674  0.000054 -0.0001    2.0674   
     6. B(H   6,O   5)                0.9963 -0.000081  0.0001    0.9963   
     7. B(O   7,Fe  0)                2.0671 -0.000090  0.0001    2.0672   
     8. B(H   8,O   7)                0.9963 -0.000141  0.0002    0.9964   
     9. B(O   9,Fe  0)                2.0678  0.000051 -0.0001    2.0678   
    10. B(H  10,O   9)                0.9963  0.000009 -0.0000    0.9962   
    11. B(O  11,Fe  0)                2.0676  0.000106 -0.0001    2.0675   
    12. B(H  12,O  11)                0.9962 -0.000095  0.0001    0.9964   
    13. B(H  13,O   3)                0.9963  0.000030 -0.0000    0.9962   
    14. B(H  14,O  11)                0.9962 -0.000143  0.0002    0.9964   
    15. B(H  15,O   1)                0.9963 -0.000126  0.0001    0.9964   
    16. B(H  16,O   9)                0.9963  0.000146 -0.0002    0.9961   
    17. B(H  17,O   7)                0.9963 -0.000131  0.0002    0.9964   
    18. B(H  18,O   5)                0.9963 -0.000149  0.0002    0.9964   
    19. A(O   7,Fe  0,O  11)           90.07  0.000024   -0.01     90.06   
    20. A(O   1,Fe  0,O  11)           89.99  0.000000   -0.00     89.98   
    21. A(O   7,Fe  0,O   9)           89.95  0.000036   -0.01     89.94   
    22. A(O   1,Fe  0,O   5)           90.00 -0.000003    0.00     90.00   
    23. A(O   5,Fe  0,O   9)           90.01 -0.000022    0.00     90.01   
    24. A(O   1,Fe  0,O   9)           90.05 -0.000025    0.00     90.05   
    25. A(O   5,Fe  0,O   7)           89.95 -0.000021    0.01     89.95   
    26. A(O   3,Fe  0,O   7)           90.04 -0.000043    0.01     90.05   
    27. A(O   3,Fe  0,O  11)           89.93 -0.000052    0.01     89.94   
    28. A(O   1,Fe  0,O   3)           89.96  0.000032   -0.01     89.95   
    29. A(O   3,Fe  0,O   5)           90.05  0.000035   -0.01     90.04   
    30. A(O   9,Fe  0,O  11)           90.01  0.000039   -0.01     90.01   
    31. A(Fe  0,O   1,H  15)          126.42  0.000058   -0.01    126.41   
    32. A(H   2,O   1,H  15)          107.18 -0.000037    0.01    107.18   
    33. A(Fe  0,O   1,H   2)          126.40 -0.000020    0.00    126.40   
    34. A(Fe  0,O   3,H   4)          126.37  0.000032   -0.00    126.37   
    35. A(H   4,O   3,H  13)          107.17  0.000023   -0.00    107.17   
    36. A(Fe  0,O   3,H  13)          126.45 -0.000054    0.01    126.46   
    37. A(H   6,O   5,H  18)          107.17 -0.000007    0.00    107.17   
    38. A(Fe  0,O   5,H  18)          126.40 -0.000040    0.01    126.41   
    39. A(Fe  0,O   5,H   6)          126.43  0.000047   -0.01    126.43   
    40. A(H   8,O   7,H  17)          107.17 -0.000044    0.01    107.18   
    41. A(Fe  0,O   7,H  17)          126.40 -0.000008    0.00    126.40   
    42. A(Fe  0,O   7,H   8)          126.42  0.000052   -0.01    126.41   
    43. A(H  10,O   9,H  16)          107.18  0.000018   -0.00    107.17   
    44. A(Fe  0,O   9,H  10)          126.42 -0.000080    0.01    126.43   
    45. A(Fe  0,O   9,H  16)          126.40  0.000061   -0.01    126.40   
    46. A(H  12,O  11,H  14)          107.18  0.000008   -0.00    107.18   
    47. A(Fe  0,O  11,H  14)          126.37 -0.000069    0.01    126.38   
    48. A(Fe  0,O  11,H  12)          126.45  0.000061   -0.01    126.44   
    49. D(H   2,O   1,Fe  0,O  11)      0.00 -0.000016   -0.29     -0.29   
    50. D(H  15,O   1,Fe  0,O   3)     90.01  0.000015    0.27     90.28   
    51. D(H   2,O   1,Fe  0,O   5)   -179.97  0.000000   -0.30   -180.27   
    52. D(H   2,O   1,Fe  0,O   3)    -89.93  0.000036   -0.31    -90.23   
    53. D(H  15,O   1,Fe  0,O   9)    -90.05  0.000002    0.27    -89.77   
    54. D(H  15,O   1,Fe  0,O   5)     -0.04 -0.000020    0.28      0.24   
    55. D(H  15,O   1,Fe  0,O  11)    179.94 -0.000037    0.28    180.22   
    56. D(H   2,O   1,Fe  0,O   9)     90.02  0.000023   -0.30     89.71   
    57. D(H  13,O   3,Fe  0,O   1)   -179.70 -0.000004    0.24   -179.46   
    58. D(H  13,O   3,Fe  0,O   7)      0.25 -0.000028    0.25      0.50   
    59. D(H  13,O   3,Fe  0,O   5)    -89.70 -0.000007    0.24    -89.45   
    60. D(H   4,O   3,Fe  0,O   7)   -179.89 -0.000033    0.29   -179.60   
    61. D(H   4,O   3,Fe  0,O   5)     90.17 -0.000012    0.28     90.45   
    62. D(H   4,O   3,Fe  0,O   1)      0.17 -0.000009    0.28      0.44   
    63. D(H  13,O   3,Fe  0,O  11)     90.31 -0.000004    0.24     90.56   
[...]

                    ********************************
                    * MULLIKEN POPULATION ANALYSIS *
                    ********************************

--------------------------------------------
MULLIKEN ATOMIC CHARGES AND SPIN POPULATIONS
--------------------------------------------
   0 Fe:    1.083912    4.209884
   1 O :   -0.553154    0.127203
   2 H :    0.436697    0.002455
   3 O :   -0.554125    0.126329
   4 H :    0.436300    0.002400
   5 O :   -0.554719    0.126887
   6 H :    0.436626    0.002431
   7 O :   -0.553146    0.127234
   8 H :    0.436911    0.002426
   9 O :   -0.554086    0.126368
  10 H :    0.436718    0.002421
  11 O :   -0.554642    0.126972
  12 H :    0.436632    0.002427
  13 H :    0.436744    0.002428
  14 H :    0.436688    0.002423
  15 H :    0.436885    0.002425
  16 H :    0.436321    0.002400
  17 H :    0.436708    0.002458
  18 H :    0.436730    0.002431
Sum of atomic charges         :    3.0000000
Sum of atomic spin populations:    5.0000000

-----------------------------------------------------
MULLIKEN REDUCED ORBITAL CHARGES AND SPIN POPULATIONS
-----------------------------------------------------
CHARGE
  0 Fes       :     6.440332  s :     6.440332
      pz      :     4.173447  p :    12.518800
      px      :     4.172070
      py      :     4.173283
      dz2     :     1.187125  d :     5.956741
      dxz     :     1.181779
      dyz     :     1.207228
      dx2y2   :     1.169602
      dxy     :     1.211006
      f0      :     0.000031  f :     0.000216
      f+1     :     0.000014
      f-1     :     0.000043
      f+2     :     0.000024
      f-2     :     0.000046
      f+3     :     0.000020
      f-3     :     0.000039
  1 O s       :     3.754225  s :     3.754225
      pz      :     1.609423  p :     4.788986
      px      :     1.548814
      py      :     1.630750
      dz2     :     0.001185  d :     0.009943
      dxz     :     0.004130
      dyz     :     0.001294
      dx2y2   :     0.001014
      dxy     :     0.002320
  2 H s       :     0.563303  s :     0.563303
  3 O s       :     3.754784  s :     3.754784
      pz      :     1.432973  p :     4.789441
      px      :     1.765137
      py      :     1.591330
      dz2     :     0.003936  d :     0.009900
      dxz     :     0.001781
      dyz     :     0.000913
      dx2y2   :     0.001018
      dxy     :     0.002253
  4 H s       :     0.563700  s :     0.563700
  5 O s       :     3.754970  s :     3.754970
      pz      :     1.752337  p :     4.789836
      px      :     1.476103
      py      :     1.561396
      dz2     :     0.001073  d :     0.009913
      dxz     :     0.000609
      dyz     :     0.002819
      dx2y2   :     0.005114
      dxy     :     0.000297
  6 H s       :     0.563374  s :     0.563374
  7 O s       :     3.754215  s :     3.754215
      pz      :     1.609283  p :     4.788988
      px      :     1.549008
      py      :     1.630697
      dz2     :     0.001190  d :     0.009943
      dxz     :     0.004128
      dyz     :     0.001291
      dx2y2   :     0.001011
      dxy     :     0.002323
  8 H s       :     0.563089  s :     0.563089
  9 O s       :     3.754789  s :     3.754789
      pz      :     1.432760  p :     4.789397
      px      :     1.764957
      py      :     1.591679
      dz2     :     0.003944  d :     0.009900
      dxz     :     0.001775
      dyz     :     0.000911
      dx2y2   :     0.001012
      dxy     :     0.002258
 10 H s       :     0.563282  s :     0.563282
 11 O s       :     3.754969  s :     3.754969
      pz      :     1.751933  p :     4.789758
      px      :     1.476081
      py      :     1.561745
      dz2     :     0.001072  d :     0.009914
      dxz     :     0.000610
      dyz     :     0.002824
      dx2y2   :     0.005114
      dxy     :     0.000294
 12 H s       :     0.563368  s :     0.563368
 13 H s       :     0.563256  s :     0.563256
 14 H s       :     0.563312  s :     0.563312
 15 H s       :     0.563115  s :     0.563115
 16 H s       :     0.563679  s :     0.563679
 17 H s       :     0.563292  s :     0.563292
 18 H s       :     0.563270  s :     0.563270

SPIN
  0 Fes       :     0.029992  s :     0.029992
      pz      :     0.006780  p :     0.020645
      px      :     0.007012
      py      :     0.006853
      dz2     :     0.833650  d :     4.159238
      dxz     :     0.836809
      dyz     :     0.823834
      dx2y2   :     0.843498
      dxy     :     0.821446
      f0      :     0.000001  f :     0.000009
      f+1     :     0.000001
      f-1     :     0.000002
      f+2     :     0.000001
      f-2     :     0.000002
      f+3     :     0.000001
      f-3     :     0.000002
  1 O s       :     0.010444  s :     0.010444
      pz      :     0.044468  p :     0.116339
      px      :     0.028863
      py      :     0.043009
      dz2     :     0.000173  d :     0.000420
      dxz     :     0.000033
      dyz     :     0.000211
      dx2y2   :     0.000028
      dxy     :    -0.000025
  2 H s       :     0.002455  s :     0.002455
  3 O s       :     0.010322  s :     0.010322
      pz      :     0.015568  p :     0.115586
      px      :     0.061204
      py      :     0.038814
      dz2     :    -0.000010  d :     0.000421
      dxz     :     0.000090
      dyz     :     0.000072
      dx2y2   :     0.000117
      dxy     :     0.000152
  4 H s       :     0.002400  s :     0.002400
  5 O s       :     0.010337  s :     0.010337
      pz      :     0.056679  p :     0.116129
      px      :     0.025893
      py      :     0.033557
      dz2     :     0.000075  d :     0.000420
      dxz     :     0.000105
      dyz     :     0.000012
      dx2y2   :     0.000055
      dxy     :     0.000173
  6 H s       :     0.002431  s :     0.002431
  7 O s       :     0.010447  s :     0.010447
      pz      :     0.044448  p :     0.116366
      px      :     0.028894
      py      :     0.043024
      dz2     :     0.000173  d :     0.000421
      dxz     :     0.000033
      dyz     :     0.000211
      dx2y2   :     0.000028
      dxy     :    -0.000025
  8 H s       :     0.002426  s :     0.002426
  9 O s       :     0.010321  s :     0.010321
      pz      :     0.015549  p :     0.115626
      px      :     0.061209
      py      :     0.038868
      dz2     :    -0.000010  d :     0.000421
      dxz     :     0.000090
      dyz     :     0.000072
      dx2y2   :     0.000117
      dxy     :     0.000152
 10 H s       :     0.002421  s :     0.002421
 11 O s       :     0.010339  s :     0.010339
      pz      :     0.056693  p :     0.116214
      px      :     0.025890
      py      :     0.033631
      dz2     :     0.000075  d :     0.000420
      dxz     :     0.000105
      dyz     :     0.000012
      dx2y2   :     0.000054
      dxy     :     0.000173
 12 H s       :     0.002427  s :     0.002427
 13 H s       :     0.002428  s :     0.002428
 14 H s       :     0.002423  s :     0.002423
 15 H s       :     0.002425  s :     0.002425
 16 H s       :     0.002400  s :     0.002400
 17 H s       :     0.002458  s :     0.002458
 18 H s       :     0.002431  s :     0.002431


                     *******************************
                     * LOEWDIN POPULATION ANALYSIS *
                     *******************************

-------------------------------------------
LOEWDIN ATOMIC CHARGES AND SPIN POPULATIONS
-------------------------------------------
   0 Fe:    0.487279    4.177771
   1 O :   -0.326752    0.133243
   2 H :    0.373001    0.002040
   3 O :   -0.327564    0.132513
   4 H :    0.372909    0.002005
   5 O :   -0.327303    0.133122
   6 H :    0.372944    0.002036
   7 O :   -0.326697    0.133274
   8 H :    0.373165    0.002023
   9 O :   -0.327569    0.132549
  10 H :    0.372970    0.002025
  11 O :   -0.327265    0.133202
  12 H :    0.372948    0.002033
  13 H :    0.372993    0.002031
  14 H :    0.372914    0.002027
  15 H :    0.373145    0.002022
  16 H :    0.372925    0.002006
  17 H :    0.373009    0.002043
  18 H :    0.372948    0.002034

----------------------------------------------------
LOEWDIN REDUCED ORBITAL CHARGES AND SPIN POPULATIONS
----------------------------------------------------
CHARGE
  0 Fes       :     6.420033  s :     6.420033
      pz      :     4.273417  p :    12.819556
      px      :     4.272823
      py      :     4.273315
      dz2     :     1.241965  d :     6.272833
      dxz     :     1.229466
      dyz     :     1.297120
      dx2y2   :     1.198131
      dxy     :     1.306151
      f0      :     0.000043  f :     0.000299
      f+1     :     0.000017
      f-1     :     0.000061
      f+2     :     0.000033
      f-2     :     0.000065
      f+3     :     0.000026
      f-3     :     0.000055
  1 O s       :     3.524231  s :     3.524231
      pz      :     1.593933  p :     4.786334
      px      :     1.563296
      py      :     1.629105
      dz2     :     0.002101  d :     0.016187
      dxz     :     0.006578
      dyz     :     0.002150
      dx2y2   :     0.001714
      dxy     :     0.003644
  2 H s       :     0.626999  s :     0.626999
  3 O s       :     3.524368  s :     3.524368
      pz      :     1.447430  p :     4.787015
      px      :     1.751330
      py      :     1.588256
      dz2     :     0.006456  d :     0.016180
      dxz     :     0.002903
      dyz     :     0.001843
      dx2y2   :     0.001590
      dxy     :     0.003389
  4 H s       :     0.627091  s :     0.627091
  5 O s       :     3.524583  s :     3.524583
      pz      :     1.749858  p :     4.786545
      px      :     1.472488
      py      :     1.564199
      dz2     :     0.001545  d :     0.016174
      dxz     :     0.001117
      dyz     :     0.004228
      dx2y2   :     0.008347
      dxy     :     0.000937
  6 H s       :     0.627056  s :     0.627056
  7 O s       :     3.524203  s :     3.524203
      pz      :     1.593798  p :     4.786308
      px      :     1.563473
      py      :     1.629036
      dz2     :     0.002108  d :     0.016187
      dxz     :     0.006574
      dyz     :     0.002147
      dx2y2   :     0.001710
      dxy     :     0.003647
  8 H s       :     0.626835  s :     0.626835
  9 O s       :     3.524389  s :     3.524389
      pz      :     1.447242  p :     4.786999
      px      :     1.751155
      py      :     1.588602
      dz2     :     0.006468  d :     0.016180
      dxz     :     0.002894
      dyz     :     0.001840
      dx2y2   :     0.001581
      dxy     :     0.003396
 10 H s       :     0.627030  s :     0.627030
 11 O s       :     3.524599  s :     3.524599
      pz      :     1.749486  p :     4.786491
      px      :     1.472484
      py      :     1.564521
      dz2     :     0.001543  d :     0.016175
      dxz     :     0.001119
      dyz     :     0.004235
      dx2y2   :     0.008347
      dxy     :     0.000932
 12 H s       :     0.627052  s :     0.627052
 13 H s       :     0.627007  s :     0.627007
 14 H s       :     0.627086  s :     0.627086
 15 H s       :     0.626855  s :     0.626855
 16 H s       :     0.627075  s :     0.627075
 17 H s       :     0.626991  s :     0.626991
 18 H s       :     0.627052  s :     0.627052

SPIN
  0 Fes       :     0.013841  s :     0.013841
      pz      :     0.003537  p :     0.010766
      px      :     0.003652
      py      :     0.003577
      dz2     :     0.832244  d :     4.153160
      dxz     :     0.835172
      dyz     :     0.823314
      dx2y2   :     0.841361
      dxy     :     0.821069
      f0      :     0.000001  f :     0.000005
      f+1     :     0.000000
      f-1     :     0.000001
      f+2     :     0.000001
      f-2     :     0.000001
      f+3     :     0.000001
      f-3     :     0.000001
  1 O s       :     0.014952  s :     0.014952
      pz      :     0.044699  p :     0.117228
      px      :     0.029163
      py      :     0.043366
      dz2     :     0.000334  d :     0.001063
      dxz     :     0.000118
      dyz     :     0.000547
      dx2y2   :     0.000059
      dxy     :     0.000005
  2 H s       :     0.002040  s :     0.002040
  3 O s       :     0.014862  s :     0.014862
      pz      :     0.015703  p :     0.116588
      px      :     0.061767
      py      :     0.039119
      dz2     :     0.000027  d :     0.001062
      dxz     :     0.000244
      dyz     :     0.000146
      dx2y2   :     0.000170
      dxy     :     0.000476
  4 H s       :     0.002005  s :     0.002005
  5 O s       :     0.014902  s :     0.014902
      pz      :     0.057245  p :     0.117155
      px      :     0.026020
      py      :     0.033891
      dz2     :     0.000218  d :     0.001064
      dxz     :     0.000165
      dyz     :     0.000136
      dx2y2   :     0.000160
      dxy     :     0.000386
  6 H s       :     0.002036  s :     0.002036
  7 O s       :     0.014955  s :     0.014955
      pz      :     0.044679  p :     0.117254
      px      :     0.029195
      py      :     0.043381
      dz2     :     0.000334  d :     0.001064
      dxz     :     0.000118
      dyz     :     0.000548
      dx2y2   :     0.000059
      dxy     :     0.000005
  8 H s       :     0.002023  s :     0.002023
  9 O s       :     0.014859  s :     0.014859
      pz      :     0.015683  p :     0.116628
      px      :     0.061770
      py      :     0.039176
      dz2     :     0.000027  d :     0.001062
      dxz     :     0.000244
      dyz     :     0.000146
      dx2y2   :     0.000170
      dxy     :     0.000476
 10 H s       :     0.002025  s :     0.002025
 11 O s       :     0.014901  s :     0.014901
      pz      :     0.057259  p :     0.117238
      px      :     0.026016
      py      :     0.033964
      dz2     :     0.000217  d :     0.001063
      dxz     :     0.000164
      dyz     :     0.000136
      dx2y2   :     0.000160
      dxy     :     0.000386
 12 H s       :     0.002033  s :     0.002033
 13 H s       :     0.002031  s :     0.002031
 14 H s       :     0.002027  s :     0.002027
 15 H s       :     0.002022  s :     0.002022
 16 H s       :     0.002006  s :     0.002006
 17 H s       :     0.002043  s :     0.002043
 18 H s       :     0.002034  s :     0.002034


                      *****************************
                      * MAYER POPULATION ANALYSIS *
                      *****************************

  NA   - Mulliken gross atomic population
  ZA   - Total nuclear charge
  QA   - Mulliken gross atomic charge
  VA   - Mayer's total valence
  BVA  - Mayer's bonded valence
  FA   - Mayer's free valence

  ATOM       NA         ZA         QA         VA         BVA        FA
  0 Fe    24.9161    26.0000     1.0839     6.7632     3.2354     3.5278
  1 O      8.5532     8.0000    -0.5532     2.1329     2.1240     0.0089
  2 H      0.5633     1.0000     0.4367     0.7951     0.7951     0.0000
  3 O      8.5541     8.0000    -0.5541     2.1300     2.1212     0.0087
  4 H      0.5637     1.0000     0.4363     0.7954     0.7954     0.0000
  5 O      8.5547     8.0000    -0.5547     2.1291     2.1203     0.0088
  6 H      0.5634     1.0000     0.4366     0.7952     0.7952     0.0000
  7 O      8.5531     8.0000    -0.5531     2.1329     2.1240     0.0089
  8 H      0.5631     1.0000     0.4369     0.7949     0.7949     0.0000
  9 O      8.5541     8.0000    -0.5541     2.1301     2.1213     0.0088
 10 H      0.5633     1.0000     0.4367     0.7952     0.7952     0.0000
 11 O      8.5546     8.0000    -0.5546     2.1293     2.1204     0.0089
 12 H      0.5634     1.0000     0.4366     0.7952     0.7952     0.0000
 13 H      0.5633     1.0000     0.4367     0.7952     0.7952     0.0000
 14 H      0.5633     1.0000     0.4367     0.7952     0.7952     0.0000
 15 H      0.5631     1.0000     0.4369     0.7950     0.7949     0.0000
 16 H      0.5637     1.0000     0.4363     0.7954     0.7954     0.0000
 17 H      0.5633     1.0000     0.4367     0.7951     0.7951     0.0000
 18 H      0.5633     1.0000     0.4367     0.7951     0.7951     0.0000

  Mayer bond orders larger than 0.1
B(  0-Fe,  1-O ) :   0.5241 B(  0-Fe,  3-O ) :   0.5213 B(  0-Fe,  5-O ) :   0.5199 
B(  0-Fe,  7-O ) :   0.5242 B(  0-Fe,  9-O ) :   0.5214 B(  0-Fe, 11-O ) :   0.5201 
B(  1-O ,  2-H ) :   0.7750 B(  1-O , 15-H ) :   0.7748 B(  3-O ,  4-H ) :   0.7752 
B(  3-O , 13-H ) :   0.7750 B(  5-O ,  6-H ) :   0.7750 B(  5-O , 18-H ) :   0.7751 
B(  7-O ,  8-H ) :   0.7747 B(  7-O , 17-H ) :   0.7750 B(  9-O , 10-H ) :   0.7750 
B(  9-O , 16-H ) :   0.7752 B( 11-O , 12-H ) :   0.7750 B( 11-O , 14-H ) :   0.7751 


-------
TIMINGS
-------

Total SCF time: 0 days 0 hours 0 min 21 sec 

Total time                  ....      21.827 sec
Sum of individual times     ....      21.350 sec  ( 97.8%)

Fock matrix formation       ....      16.522 sec  ( 75.7%)
  Coulomb formation         ....       7.343 sec  ( 44.4% of F)
  Split-RI-J                ....       6.821 sec  ( 41.3% of F)
  XC integration            ....       8.952 sec  ( 54.2% of F)
    Basis function eval.    ....       2.629 sec  ( 29.4% of XC)
    Density eval.           ....       2.396 sec  ( 26.8% of XC)
    XC-Functional eval.     ....       0.780 sec  (  8.7% of XC)
    XC-Potential eval.      ....       1.948 sec  ( 21.8% of XC)
Diagonalization             ....       0.202 sec  (  0.9%)
Density matrix formation    ....       0.016 sec  (  0.1%)
Population analysis         ....       0.170 sec  (  0.8%)
Initial guess               ....       0.089 sec  (  0.4%)
Orbital Transformation      ....       0.000 sec  (  0.0%)
Orbital Orthonormalization  ....       0.084 sec  (  0.4%)
DIIS solution               ....       0.444 sec  (  2.0%)
Grid generation             ....       3.906 sec  ( 17.9%)

-------------------------   --------------------
FINAL SINGLE POINT ENERGY     -1721.015128279970
-------------------------   --------------------

                                *** OPTIMIZATION RUN DONE ***

                            ***************************************
                            *     ORCA property calculations      *
                            ***************************************

                                    ---------------------
                                    Active property flags
                                    ---------------------
   (+) Dipole Moment


------------------------------------------------------------------------------
                       ORCA ELECTRIC PROPERTIES CALCULATION
------------------------------------------------------------------------------

Dipole Moment Calculation                       ... on
Quadrupole Moment Calculation                   ... off
Polarizability Calculation                      ... off
GBWName                                         ... orca4.gbw
Electron density file                           ... orca4.scfp.tmp

-------------
DIPOLE MOMENT
-------------
                                X             Y             Z
Electronic contribution:      0.00022      -0.00086      -0.00040
Nuclear contribution   :     -0.00091       0.00105       0.00035
                        -----------------------------------------
Total Dipole Moment    :     -0.00069       0.00018      -0.00006
                        -----------------------------------------
Magnitude (a.u.)       :      0.00072
Magnitude (Debye)      :      0.00183


Timings for individual modules:

Sum of individual times         ...      240.915 sec (=   4.015 min)
GTO integral calculation        ...        7.845 sec (=   0.131 min)   3.3 %
SCF iterations                  ...      144.665 sec (=   2.411 min)  60.0 %
SCF Gradient evaluation         ...       82.133 sec (=   1.369 min)  34.1 %
Geometry relaxation             ...        6.272 sec (=   0.105 min)   2.6 %
                             ****ORCA TERMINATED NORMALLY****
TOTAL RUN TIME: 0 days 0 hours 4 minutes 6 seconds 417 msec
All Done!
