SLURM_JOBID=2206936
SLURM_JOB_NODELIST=k07n03s02,k07n04s02
SLURM_NNODES=2
SLURMTMPDIR=/scratch/2206936
working directory = /ifs/user/m27/ORCA/MyMol
 'orca/2.9.1' load complete.
Currently Loaded Modulefiles:
  1) null              3) intel/13.1        5) intel/13.0
  2) modules           4) orca/2.9.1        6) intel-mpi/4.1.0
Launch ORCA3 with SLURM

                                 *****************
                                 * O   R   C   A *
                                 *****************

           --- An Ab Initio, DFT and Semiempirical electronic structure package ---

                  ######################################################
                  #                        -***-                       #
                  #  Department of molecular theory and spectroscopy   #
                  #              Directorship: Frank Neese             #
                  #   Max Planck Institute for Bioinorganic Chemistry  #
                  #                  D-45470 Muelheim/Ruhr             #
                  #                       Germany                      #
                  #                                                    #
                  #                  All rights reserved               #
                  #                        -***-                       #
                  ######################################################


                         Program Version 2.9.1 -  RELEASE  -


 With contributions from (in alphabetic order):
   Ute Becker             : Parallelization
   Dmitry Ganyushin       : Spin-Orbit,Spin-Spin,Magnetic field MRCI
   Andreas Hansen         : Spin unrestricted coupled pair/coupled cluster methods
   Dimitrios Liakos       : Parallel MDCI
   Robert Izsak           : Overlap fitted RIJCOSX
   Christian Kollmar      : KDIIS, orbital optimized coupled pair methods, Brueckner methods
   Simone Kossmann        : Meta GGA functionals, improved MP2 methods
   Taras Petrenko         : TD-DFT gradient, Resonance Raman, ABS, fluorescence, XAS, NRVS
   Christoph Reimann      : Effective Core Potentials
   Michael Roemelt        : Restricted open shell CI
   Christoph Riplinger    : Improved optimizer, TS searches, QM/MM
   Barbara Sandhoefer     : DKH, picture change effects
   Igor Schapiro          : Molecular dynamics
   Kantharuban Sivalingam : CASSCF and multireference perturbation theory
   Boris Wezisla          : Elementary symmetry handling
   Frank Wennmohs         : Technical directorship


 We gratefully acknowledge several collegues who have allowed us to
 interface, adapt or use parts of their codes:
   Stefan Grimme                                : VdW corrections, initial TS optimization
                                                  and many helpful discussions
   Ed Valeev                                    : LibInt (2-el integral package), F12 methods
   Andreas Klamt, Michael Diedenhofen           : otool_cosmo (COSMO solvation model)
   Frank Weinhold                               : gennbo (NPA and NBO analysis)


 Your calculation uses the libint2 library for the computation of 2-el integrals
 For citations please refer to: http://libint.valeyev.net

Your calculation utilizes the basis: Ahlrichs-VDZ
Cite in your paper:
H - Kr: A. Schaefer, H. Horn and R. Ahlrichs, J. Chem. Phys. 97, 2571 (1992).

Your calculation utilizes pol. fcns from basis: Ahlrichs polarization
Cite in your paper:
H - Kr: R. Ahlrichs and coworkers, unpublished

================================================================================
                                        WARNINGS
                       Please study these warnings very carefully!
================================================================================
Now building the actual basis set

WARNING: Geometry Optimization
  ===> : Switching off AutoStart
         For restart on a previous wavefunction, please use MOREAD


INFO   : the flag for use of LIBINT has been found!

================================================================================
                                       INPUT FILE
================================================================================
NAME = orca3.inp
|  1> # 
|  2> # Test redundant internal optimization 
|  3> # 
|  4> ! RKS B3LYP SVP Opt TightSCF SmallPrint 
|  5> * xyz 0 1 
|  6> C -1.48746 -0.02867 -0.00006 
|  7> O 0.37634 0.02867 -0.00006 
|  8> H -1.81891 -1.06706 -0.00006 
|  9> H -1.86647 0.47370 0.88993 
| 10> H -1.86647 0.47370 -0.89004 
| 11> H 0.75672 -0.95001 -0.00006 
| 12> **                         ****END OF INPUT****
================================================================================

                       *****************************
                       * Geometry Optimization Run *
                       *****************************

Geometry optimization settings:
Update method            Update   .... BFGS
Choice of coordinates    CoordSys .... Redundant Internals
Initial Hessian          InHess   .... Almoef's Model

Convergence Tolerances:
Energy Change            TolE     ....  5.0000e-06 Eh
Max. Gradient            TolMAXG  ....  3.0000e-04 Eh/bohr
RMS Gradient             TolRMSG  ....  1.0000e-04 Eh/bohr
Max. Displacement        TolMAXD  ....  4.0000e-03 bohr
RMS Displacement         TolRMSD  ....  2.0000e-03 bohr

------------------------------------------------------------------------------
                        ORCA OPTIMIZATION COORDINATE SETUP
------------------------------------------------------------------------------

The optimization will be done in new redundant internal coordinates
Making redundant internal coordinates   ...  (new redundants) done
Evaluating the initial hessian          ...  (Almloef) done
Evaluating the coordinates              ...  done
Calculating the B-matrix                .... done
Calculating the G-matrix                .... done
Diagonalizing the G-matrix              .... done
The first mode is                       ....    3
The number of degrees of freedom        ....   12

    -----------------------------------------------------------------
                    Redundant Internal Coordinates


    -----------------------------------------------------------------
         Definition                    Initial Value    Approx d2E/dq
    -----------------------------------------------------------------
      1. B(O   1,C   0)                  1.8647         0.097848   
      2. B(H   2,C   0)                  1.0900         0.360092   
      3. B(H   3,C   0)                  1.0900         0.360096   
      4. B(H   4,C   0)                  1.0900         0.360107   
      5. B(H   5,O   1)                  1.0500         0.373572   
      6. A(O   1,C   0,H   3)          109.4739         0.261337   
      7. A(O   1,C   0,H   2)          109.4650         0.261336   
      8. A(O   1,C   0,H   4)          109.4741         0.261338   
      9. A(H   2,C   0,H   4)          109.4712         0.290839   
     10. A(H   3,C   0,H   4)          109.4721         0.290840   
     11. A(H   2,C   0,H   3)          109.4710         0.290838   
     12. A(C   0,O   1,H   5)          109.4773         0.260751   
     13. D(H   5,O   1,C   0,H   3)    119.9976         0.002063   
     14. D(H   5,O   1,C   0,H   4)   -119.9979         0.002063   
     15. D(H   5,O   1,C   0,H   2)      0.0000         0.002063   
    -----------------------------------------------------------------

Number of atoms                         .... 6
Number of degrees of freedom            .... 15

         *************************************************************
         *                GEOMETRY OPTIMIZATION CYCLE   1            *
         *************************************************************
---------------------------------
CARTESIAN COORDINATES (ANGSTROEM)
---------------------------------
  C     -1.487460   -0.028670   -0.000060
  O      0.376340    0.028670   -0.000060
  H     -1.818910   -1.067060   -0.000060
  H     -1.866470    0.473700    0.889930
  H     -1.866470    0.473700   -0.890040
  H      0.756720   -0.950010   -0.000060

----------------------------
CARTESIAN COORDINATES (A.U.)
----------------------------
  NO LB      ZA    FRAG    MASS        X           Y           Z
   0 C     6.0000    0    12.011   -2.810892   -0.054178   -0.000113
   1 O     8.0000    0    15.999    0.711180    0.054178   -0.000113
   2 H     1.0000    0     1.008   -3.437242   -2.016451   -0.000113
   3 H     1.0000    0     1.008   -3.527117    0.895163    1.681724
   4 H     1.0000    0     1.008   -3.527117    0.895163   -1.681932
   5 H     1.0000    0     1.008    1.429994   -1.795259   -0.000113

--------------------------------
INTERNAL COORDINATES (ANGSTROEM)
--------------------------------
 C      0   0   0   0.000000     0.000     0.000
 O      1   0   0   1.864682     0.000     0.000
 H      1   2   0   1.090006   109.465     0.000
 H      1   2   3   1.090003   109.474   119.998
 H      1   2   3   1.089995   109.474   240.002
 H      2   1   3   1.050002   109.477     0.000

---------------------------
INTERNAL COORDINATES (A.U.)
---------------------------
 C      0   0   0   0.000000     0.000     0.000
 O      1   0   0   3.523738     0.000     0.000
 H      1   2   0   2.059813   109.465     0.000
 H      1   2   3   2.059807   109.474   119.998
 H      1   2   3   2.059792   109.474   240.002
 H      2   1   3   1.984216   109.477     0.000

---------------------
BASIS SET INFORMATION
---------------------
There are 3 groups of distinct atoms

 Group   1 Type C   : 7s4p1d contracted to 3s2p1d pattern {511/31/1}
 Group   2 Type O   : 7s4p1d contracted to 3s2p1d pattern {511/31/1}
 Group   3 Type H   : 4s1p contracted to 2s1p pattern {31/1}

Atom   0C    basis set group =>   1
Atom   1O    basis set group =>   2
Atom   2H    basis set group =>   3
Atom   3H    basis set group =>   3
Atom   4H    basis set group =>   3
Atom   5H    basis set group =>   3
------------------------------------------------------------------------------
                           ORCA GTO INTEGRAL CALCULATION
------------------------------------------------------------------------------

                         BASIS SET STATISTICS AND STARTUP INFO

 # of primitive gaussian shells          ...   44
 # of primitive gaussian functions       ...   76
 # of contracted shell                   ...   24
 # of contracted basis functions         ...   48
 Highest angular momentum                ...    2
 Maximum contraction depth               ...    5
 Integral package used                   ... LIBINT
 Integral threshhold             Thresh  ...  2.500e-11
 Primitive cut-off               TCut    ...  2.500e-12


                              INTEGRAL EVALUATION

 One electron integrals                  ... done
 Pre-screening matrix                    ... done
 Shell pair data                         ... done (   0.000 sec)

-------------------------------------------------------------------------------
                                 ORCA SCF
-------------------------------------------------------------------------------

------------
SCF SETTINGS
------------
Hamiltonian:
 Density Functional     Method          .... DFT(GTOs)
 Exchange Functional    Exchange        .... B88
   X-Alpha parameter    XAlpha          ....  0.666667
   Becke's b parameter  XBeta           ....  0.004200
 Correlation Functional Correlation     .... LYP
 LDA part of GGA corr.  LDAOpt          .... VWN-5
 Gradients option       PostSCFGGA      .... off
 Hybrid DFT is turned on
   Fraction HF Exchange ScalHFX         ....  0.200000
   Scaling of DF-GGA-X  ScalDFX         ....  0.720000
   Scaling of DF-GGA-C  ScalDFC         ....  0.810000
   Scaling of DF-LDA-C  ScalLDAC        ....  1.000000
   Perturbative correction              ....  0.000000


General Settings:
 Integral files         IntName         .... orca3
 Hartree-Fock type      HFTyp           .... RHF
 Total Charge           Charge          ....    0
 Multiplicity           Mult            ....    1
 Number of Electrons    NEL             ....   18
 Basis Dimension        Dim             ....   48
 Nuclear Repulsion      ENuc            ....     34.3143360421 Eh

Convergence Acceleration:
 DIIS                   CNVDIIS         .... on
   Start iteration      DIISMaxIt       ....    12
   Startup error        DIISStart       ....  0.200000
   # of expansion vecs  DIISMaxEq       ....     5
   Bias factor          DIISBfac        ....   1.050
   Max. coefficient     DIISMaxC        ....  10.000
 Newton-Raphson         CNVNR           .... off
 SOSCF                  CNVSOSCF        .... on
   Start iteration      SOSCFMaxIt      ....   150
   Startup grad/error   SOSCFStart      ....  0.003300
 Level Shifting         CNVShift        .... on
   Level shift para.    LevelShift      ....    0.2500
   Turn off err/grad.   ShiftErr        ....    0.0010
 Zerner damping         CNVZerner       .... off
 Static damping         CNVDamp         .... on
   Fraction old density DampFac         ....    0.7000
   Max. Damping (<1)    DampMax         ....    0.9800
   Min. Damping (>=0)   DampMin         ....    0.0000
   Turn off err/grad.   DampErr         ....    0.1000
 Fernandez-Rico         CNVRico         .... off

SCF Procedure:
 Maximum # iterations   MaxIter         ....   125
 SCF integral mode      SCFMode         .... Direct
   Integral package                     .... LIBINT
 Reset frequeny         DirectResetFreq ....    20
 Integral Threshold     Thresh          ....  2.500e-11 Eh
 Primitive CutOff       TCut            ....  2.500e-12 Eh

Convergence Tolerance:
 Convergence Check Mode ConvCheckMode   .... Total+1el-Energy
 Energy Change          TolE            ....  1.000e-08 Eh
 1-El. energy change                    ....  1.000e-05 Eh
 Orbital Gradient       TolG            ....  1.000e-05
 Orbital Rotation angle TolX            ....  1.000e-05
 DIIS Error             TolErr          ....  5.000e-07


Diagonalization of the overlap matrix:
Smallest eigenvalue                        ... 1.511e-02
Time for diagonalization                   ...    0.116 sec
Time for construction of square roots      ...    0.037 sec
Total time needed                          ...    0.153 sec

-------------------
DFT GRID GENERATION
-------------------

General Integration Accuracy     IntAcc      ...  4.340
Radial Grid Type                 RadialGrid  ... Gauss-Chebyshev
Angular Grid (max. acc.)         AngularGrid ... Lebedev-110
Angular grid pruning method      GridPruning ... 3 (G Style)
Weight generation scheme         WeightScheme... Becke
Basis function cutoff            BFCut       ...    1.0000e-11
Integration weight cutoff        WCut        ...    1.0000e-14
Grids for H and He will be reduced by one unit

# of grid points (after initial pruning)     ...   6548 (   0.0 sec)
# of grid points (after weights+screening)   ...   6396 (   0.0 sec)
nearest neighbour list constructed           ...    0.0 sec
Grid point re-assignment to atoms done       ...    0.0 sec
Grid point division into batches done        ...    0.0 sec
Reduced shell lists constructed in    0.0 sec

Total number of grid points                  ...     6396
Total number of batches                      ...      103
Average number of points per batch           ...       62
Average number of grid points per atom       ...     1066
Average number of shells per batch           ...    21.26 (88.58%)
Average number of basis functions per batch  ...    42.64 (88.84%)
Average number of large shells per batch     ...    19.03 (89.51%)
Average number of large basis fcns per batch ...    37.18 (87.19%)
Maximum spatial batch extension              ...  19.49, 18.43, 25.60 au
Average spatial batch extension              ...   4.80,  4.64,  4.89 au

Time for grid setup =    0.121 sec

------------------------------
INITIAL GUESS: MODEL POTENTIAL
------------------------------
Loading Hartree-Fock densities                     ... done
Calculating cut-offs                               ... done
Setting up the integral package                    ... done
Initializing the effective Hamiltonian             ... done
Starting the Coulomb interaction                   ... done (   0.0 sec)
Reading the grid                                   ... done
Mapping shells                                     ... done
Starting the XC term evaluation                    ... done (   0.8 sec)
  promolecular density results
     # of electrons  =     17.991637641
     EX              =    -14.404742934
     EC              =     -0.577512120
     EX+EC           =    -14.982255055
Transforming the Hamiltonian                       ... done (   0.0 sec)
Diagonalizing the Hamiltonian                      ... done (   0.0 sec)
Back transforming the eigenvectors                 ... done (   0.0 sec)
Now organizing SCF variables                       ... done
                      ------------------
                      INITIAL GUESS DONE (   0.7 sec)
                      ------------------
--------------
SCF ITERATIONS
--------------
ITER       Energy         Delta-E        Max-DP      RMS-DP      [F,P]     Damp
               ***  Starting incremental Fock matrix formation  ***
  0   -115.4120903313   0.000000000000 0.08130200  0.00479210  0.2636462 0.7000
  1   -115.4553690319  -0.043278700608 0.04655786  0.00284596  0.0972762 0.7000
                               ***Turning on DIIS***
  2   -115.4687001177  -0.013331085818 0.05540649  0.00385435  0.0339941 0.0000
  3   -115.4945573339  -0.025857216165 0.03492645  0.00217201  0.0555497 0.0000
  4   -115.4982280984  -0.003670764508 0.01103963  0.00065848  0.0247682 0.0000
                      *** Initiating the SOSCF procedure ***
                           *** Shutting down DIIS ***
                      *** Re-Reading the Fockian *** 
                      *** Removing any level shift *** 
ITER      Energy       Delta-E        Grad      Rot      Max-DP    RMS-DP
  5   -115.49890909  -0.0006809945  0.000606  0.000606  0.001163  0.000112
               *** Restarting incremental Fock matrix formation ***
  6   -115.49892289  -0.0000137934  0.000396  0.001370  0.002197  0.000094
  7   -115.49891834   0.0000045494  0.001072  0.001118  0.001307  0.000065
  8   -115.49892456  -0.0000062203  0.000038  0.000055  0.000129  0.000008
  9   -115.49892456   0.0000000021  0.000040  0.000029  0.000072  0.000004
                  ***Gradient check signals convergence***
              ***Rediagonalizing the Fockian in SOSCF/NRSCF***

               *****************************************************
               *                     SUCCESS                       *
               *           SCF CONVERGED AFTER  10 CYCLES          *
               *****************************************************

Setting up the final grid:

General Integration Accuracy     IntAcc      ...  4.670
Radial Grid Type                 RadialGrid  ... Gauss-Chebyshev
Angular Grid (max. acc.)         AngularGrid ... Lebedev-302
Angular grid pruning method      GridPruning ... 3 (G Style)
Weight generation scheme         WeightScheme... Becke
Basis function cutoff            BFCut       ...    1.0000e-11
Integration weight cutoff        WCut        ...    1.0000e-14
Grids for H and He will be reduced by one unit

# of grid points (after initial pruning)     ...  26000 (   0.0 sec)
# of grid points (after weights+screening)   ...  25238 (   0.0 sec)
nearest neighbour list constructed           ...    0.0 sec
Grid point re-assignment to atoms done       ...    0.0 sec
Grid point division into batches done        ...    0.1 sec
Reduced shell lists constructed in    0.2 sec

Total number of grid points                  ...    25238
Total number of batches                      ...      398
Average number of points per batch           ...       63
Average number of grid points per atom       ...     4206
Average number of shells per batch           ...    19.64 (81.82%)
Average number of basis functions per batch  ...    39.08 (81.41%)
Average number of large shells per batch     ...    16.95 (86.33%)
Average number of large basis fcns per batch ...    32.85 (84.06%)
Maximum spatial batch extension              ...  18.34, 20.64, 18.89 au
Average spatial batch extension              ...   3.04,  3.04,  3.02 au

Final grid set up in    0.3 sec
Final integration                            ... done (   0.4 sec)
Change in XC energy                          ...     0.000010277
Integrated number of electrons               ...    18.000006960
Previous integrated no of electrons          ...    17.997312526

----------------
TOTAL SCF ENERGY
----------------

Total Energy       :         -115.49891430 Eh           -3142.88524 eV

Components:
Nuclear Repulsion  :           34.31433604 Eh             933.74055 eV
Electronic Energy  :         -149.81325034 Eh           -4076.62579 eV

One Electron Energy:         -225.21934832 Eh           -6128.53004 eV
Two Electron Energy:           75.40609798 Eh            2051.90424 eV

Virial components:
Potential Energy   :         -229.63584017 Eh           -6248.70889 eV
Kinetic Energy     :          114.13692587 Eh            3105.82365 eV
Virial Ratio       :            2.01193293


DFT components:
N(Alpha)           :        9.000003480148 electrons
N(Beta)            :        9.000003480148 electrons
N(Total)           :       18.000006960296 electrons
E(X)               :      -11.653818577090 Eh       
E(C)               :       -0.691854880241 Eh       
E(XC)              :      -12.345673457330 Eh       

---------------
SCF CONVERGENCE
---------------

  Last Energy change         ...   -1.8451e-08  Tolerance :   1.0000e-08
  Last MAX-Density change    ...    3.3991e-06  Tolerance :   1.0000e-07
  Last RMS-Density change    ...    2.2883e-07  Tolerance :   5.0000e-09
  Last Orbital Gradient      ...    1.0512e-06  Tolerance :   1.0000e-05
  Last Orbital Rotation      ...    2.9383e-06  Tolerance :   1.0000e-05

             **** THE GBW FILE WAS UPDATED (orca3.gbw) ****
             **** DENSITY FILE WAS UPDATED (orca3.scfp.tmp) ****
             **** ENERGY FILE WAS UPDATED (orca3.en.tmp) ****
----------------
ORBITAL ENERGIES
----------------

  NO   OCC          E(Eh)            E(eV) 
   0   2.0000     -19.121995      -520.3359 
   1   2.0000     -10.249358      -278.8992 
   2   2.0000      -0.892700       -24.2916 
   3   2.0000      -0.686701       -18.6861 
   4   2.0000      -0.435156       -11.8412 
   5   2.0000      -0.423159       -11.5147 
   6   2.0000      -0.400371       -10.8946 
   7   2.0000      -0.309503        -8.4220 
   8   2.0000      -0.255327        -6.9478 
   9   0.0000      -0.021253        -0.5783 
  10   0.0000       0.057236         1.5575 
  11   0.0000       0.100868         2.7448 
  12   0.0000       0.132867         3.6155 
  13   0.0000       0.135097         3.6762 
  14   0.0000       0.422893        11.5075 
  15   0.0000       0.431687        11.7468 
  16   0.0000       0.472920        12.8688 
  17   0.0000       0.575343        15.6559 
  18   0.0000       0.636777        17.3276 
  19   0.0000       0.659275        17.9398 
  20   0.0000       0.660137        17.9632 
  21   0.0000       0.690379        18.7862 
  22   0.0000       0.955922        26.0120 
  23   0.0000       0.961234        26.1565 
  24   0.0000       1.056272        28.7426 
  25   0.0000       1.184094        32.2208 
  26   0.0000       1.224078        33.3089 
  27   0.0000       1.270167        34.5630 
  28   0.0000       1.464597        39.8537 
  29   0.0000       1.471713        40.0473 
  30   0.0000       1.510996        41.1163 
  31   0.0000       1.694694        46.1150 
  32   0.0000       1.722485        46.8712 
  33   0.0000       1.850486        50.3543 
  34   0.0000       1.925547        52.3968 
  35   0.0000       1.933858        52.6230 
  36   0.0000       2.061895        56.1070 
  37   0.0000       2.157516        58.7090 
  38   0.0000       2.406629        65.4877 
  39   0.0000       2.406844        65.4936 
  40   0.0000       2.618402        71.2503 
  41   0.0000       2.711102        73.7728 
  42   0.0000       2.840271        77.2877 
  43   0.0000       2.885547        78.5197 
  44   0.0000       2.888302        78.5947 
  45   0.0000       2.932370        79.7938 
  46   0.0000       2.959847        80.5415 
  47   0.0000       3.641832        99.0993 

                    ********************************
                    * MULLIKEN POPULATION ANALYSIS *
                    ********************************

-----------------------
MULLIKEN ATOMIC CHARGES
-----------------------
   0 C :    0.080684
   1 O :   -0.416452
   2 H :    0.039470
   3 H :    0.053457
   4 H :    0.053456
   5 H :    0.189386
Sum of atomic charges:    0.0000000

--------------------------------
MULLIKEN REDUCED ORBITAL CHARGES
--------------------------------
  0 C s       :     3.130892  s :     3.130892
      pz      :     1.040889  p :     2.763448
      px      :     0.697138
      py      :     1.025421
      dz2     :     0.005162  d :     0.024976
      dxz     :     0.005669
      dyz     :     0.004824
      dx2y2   :     0.005039
      dxy     :     0.004282
  1 O s       :     3.859193  s :     3.859193
      pz      :     1.960068  p :     4.550897
      px      :     1.223279
      py      :     1.367551
      dz2     :     0.001315  d :     0.006362
      dxz     :     0.000188
      dyz     :     0.000660
      dx2y2   :     0.003078
      dxy     :     0.001121
  2 H s       :     0.936631  s :     0.936631
      pz      :     0.005600  p :     0.023899
      px      :     0.004419
      py      :     0.013880
  3 H s       :     0.923195  s :     0.923195
      pz      :     0.011765  p :     0.023348
      px      :     0.004117
      py      :     0.007466
  4 H s       :     0.923196  s :     0.923196
      pz      :     0.011765  p :     0.023348
      px      :     0.004117
      py      :     0.007466
  5 H s       :     0.755706  s :     0.755706
      pz      :     0.015996  p :     0.054908
      px      :     0.011347
      py      :     0.027566


                     *******************************
                     * LOEWDIN POPULATION ANALYSIS *
                     *******************************

----------------------
LOEWDIN ATOMIC CHARGES
----------------------
   0 C :    0.108773
   1 O :   -0.290975
   2 H :    0.022522
   3 H :    0.028578
   4 H :    0.028576
   5 H :    0.102526

-------------------------------
LOEWDIN REDUCED ORBITAL CHARGES
-------------------------------
  0 C s       :     2.919711  s :     2.919711
      pz      :     1.096204  p :     2.915956
      px      :     0.731944
      py      :     1.087808
      dz2     :     0.012167  d :     0.055561
      dxz     :     0.011482
      dyz     :     0.012239
      dx2y2   :     0.011647
      dxy     :     0.008026
  1 O s       :     3.660688  s :     3.660688
      pz      :     1.937991  p :     4.619839
      px      :     1.239648
      py      :     1.442200
      dz2     :     0.002187  d :     0.010448
      dxz     :     0.000217
      dyz     :     0.000330
      dx2y2   :     0.005447
      dxy     :     0.002268
  2 H s       :     0.909274  s :     0.909274
      pz      :     0.012874  p :     0.068205
      px      :     0.014270
      py      :     0.041060
  3 H s       :     0.903644  s :     0.903644
      pz      :     0.034290  p :     0.067777
      px      :     0.014138
      py      :     0.019350
  4 H s       :     0.903645  s :     0.903645
      pz      :     0.034290  p :     0.067779
      px      :     0.014138
      py      :     0.019351
  5 H s       :     0.755218  s :     0.755218
      pz      :     0.038591  p :     0.142256
      px      :     0.027492
      py      :     0.076173


                      *****************************
                      * MAYER POPULATION ANALYSIS *
                      *****************************

  NA   - Mulliken gross atomic population
  ZA   - Total nuclear charge
  QA   - Mulliken gross atomic charge
  VA   - Mayer's total valence
  BVA  - Mayer's bonded valence
  FA   - Mayer's free valence

  ATOM       NA         ZA         QA         VA         BVA        FA
  0 C      5.9193     6.0000     0.0807     3.9377     3.9377     0.0000
  1 O      8.4165     8.0000    -0.4165     1.9468     1.9468    -0.0000
  2 H      0.9605     1.0000     0.0395     0.9817     0.9817    -0.0000
  3 H      0.9465     1.0000     0.0535     0.9832     0.9832     0.0000
  4 H      0.9465     1.0000     0.0535     0.9832     0.9832     0.0000
  5 H      0.8106     1.0000     0.1894     0.9784     0.9784     0.0000

  Mayer bond orders larger than 0.1
B(  0-C ,  1-O ) :   0.9686 B(  0-C ,  2-H ) :   0.9838 B(  0-C ,  3-H ) :   0.9856 
B(  0-C ,  4-H ) :   0.9856 B(  1-O ,  5-H ) :   0.9619 

-------
TIMINGS
-------

Total SCF time: 0 days 0 hours 0 min 7 sec 

Total time                  ....       7.654 sec
Sum of individual times     ....       7.662 sec  (100.1%)

Fock matrix formation       ....       6.368 sec  ( 83.2%)
  Coulomb formation         ....       3.998 sec  ( 62.8% of F)
  XC integration            ....       2.148 sec  ( 33.7% of F)
    Basis function eval.    ....       0.363 sec  ( 16.9% of XC)
    Density eval.           ....       0.172 sec  (  8.0% of XC)
    XC-Functional eval.     ....       0.204 sec  (  9.5% of XC)
    XC-Potential eval.      ....       0.155 sec  (  7.2% of XC)
Diagonalization             ....       0.012 sec  (  0.2%)
Density matrix formation    ....       0.000 sec  (  0.0%)
Population analysis         ....       0.059 sec  (  0.8%)
Initial guess               ....       0.667 sec  (  8.7%)
Orbital Transformation      ....       0.000 sec  (  0.0%)
Orbital Orthonormalization  ....       0.000 sec  (  0.0%)
DIIS solution               ....       0.054 sec  (  0.7%)
SOSCF solution              ....       0.032 sec  (  0.4%)
Grid generation             ....       0.469 sec  (  6.1%)

-------------------------   --------------------
FINAL SINGLE POINT ENERGY      -115.498914296436
-------------------------   --------------------

------------------------------------------------------------------------------
                         ORCA SCF GRADIENT CALCULATION
------------------------------------------------------------------------------

Gradient of the Kohn-Sham DFT energy:
Kohn-Sham wavefunction type      ... RKS
Hartree-Fock exchange scaling    ...    0.200
Number of operators              ...    1
Number of atoms                  ...    6
Basis set dimensions             ...   48
Integral neglect threshold       ... 2.5e-11
Integral primitive cutoff        ... 2.5e-12

Nuclear repulsion gradient       ... done
One Electron Gradient            ... done
Pre-screening matrix             ... done
Starting the two electron gradient:
Two electron gradient done
Exchange-correlation gradient    ... done

------------------
CARTESIAN GRADIENT
------------------

   1   C   :   -0.064696793    0.009937596   -0.000004853
   2   O   :    0.058447761    0.041237174    0.000000084
   3   H   :   -0.006012068    0.006938092    0.000000048
   4   H   :   -0.011066687   -0.004323442   -0.007484013
   5   H   :   -0.011064963   -0.004326095    0.007488735
   6   H   :    0.034414289   -0.049373309    0.000000005

Norm of the cartesian gradient     ...    0.116197371
RMS gradient                       ...    0.027387983
MAX gradient                       ...    0.064696793

-------
TIMINGS
-------

Total SCF gradient time            ...        2.402 sec

One electron gradient       ....       0.014 sec  (  0.6%)
Prescreening matrices       ....       0.022 sec  (  0.9%)
Two electron gradient       ....       0.779 sec  ( 32.4%)
XC gradient                 ....       0.935 sec  ( 38.9%)
------------------------------------------------------------------------------
                         ORCA GEOMETRY RELAXATION STEP
------------------------------------------------------------------------------

Reading the OPT-File                    .... done
Getting information on internals        .... done
Copying old internal coords+grads       .... done
Making the new internal coordinates     .... (new redundants).... done
Validating the new internal coordinates .... (new redundants).... done
Calculating the B-matrix                .... done
Calculating the G,G- and P matrices     .... done
Transforming gradient to internals      .... done
Projecting the internal gradient        .... done
Number of atoms                         ....   6
Number of internal coordinates          ....  15
Current Energy                          ....  -115.498914296 Eh
Current gradient norm                   ....     0.116197371 Eh/bohr
Maximum allowed component of the step   ....  0.300
Current trust radius                    ....  0.300
Evaluating the initial hessian          ....  (Almloef) done
Projecting the Hessian                  .... done
Forming the augmented Hessian           .... done
Diagonalizing the augmented Hessian     .... done
Last element of RFO vector              ....  0.859232965
Lowest eigenvalues of augmented Hessian:
 -0.065507217  0.002063067  0.146454199  0.175220618  0.175324959
Length of the computed step             ....  0.595396746
Warning: the length of the step is outside the trust region - taking restricted step instead
The input lambda is                     ....    -0.065507
   iter:   1  x=   -0.129939  g=    4.105096 f(x)=     0.264497
   iter:   2  x=   -0.193879  g=    1.558593 f(x)=     0.099658
   iter:   3  x=   -0.232548  g=    0.763002 f(x)=     0.029504
   iter:   4  x=   -0.241527  g=    0.533656 f(x)=     0.004792
   iter:   5  x=   -0.241892  g=    0.494167 f(x)=     0.000180
   iter:   6  x=   -0.241893  g=    0.492647 f(x)=     0.000000
   iter:   7  x=   -0.241893  g=    0.492645 f(x)=     0.000000
   iter:   8  x=   -0.241893  g=    0.492645 f(x)=    -0.000000
The output lambda is                    ....    -0.241893 (8 iterations)
The final length of the internal step   ....  0.300000000
Converting the step to cartesian space:
 Initial RMS(Int)=    0.0774596669
Transforming coordinates:
 Iter   0:  RMS(Cart)=    0.1031303122 RMS(Int)=    0.0773708636
 Iter   1:  RMS(Cart)=    0.0010143839 RMS(Int)=    0.0011582848
 Iter   2:  RMS(Cart)=    0.0000499287 RMS(Int)=    0.0000724716
 Iter   3:  RMS(Cart)=    0.0000019209 RMS(Int)=    0.0000028319
 Iter   4:  RMS(Cart)=    0.0000000622 RMS(Int)=    0.0000000893
done
Storing new coordinates                 .... done

                                .--------------------.
          ----------------------|Geometry convergence|---------------------
          Item                value                 Tolerance   Converged
          -----------------------------------------------------------------
          RMS gradient        0.03028784            0.00010000      NO
          MAX gradient        0.09254509            0.00030000      NO
          RMS step            0.07745967            0.00200000      NO
          MAX step            0.27239952            0.00400000      NO
          ....................................................
          Max(Bonds)      0.1441      Max(Angles)    3.20
          Max(Dihed)        0.17      Max(Improp)    0.00
          -----------------------------------------------------------------

The optimization has not yet converged - more geometry cycles are needed


    ---------------------------------------------------------------------------
                         Redundant Internal Coordinates
                            (Angstroem and degrees)

        Definition                    Value    dE/dq     Step     New-Value
    ----------------------------------------------------------------------------
     1. B(O   1,C   0)                1.8647  0.092545 -0.1441    1.7205   
     2. B(H   2,C   0)                1.0900 -0.004778  0.0042    1.0942   
     3. B(H   3,C   0)                1.0900 -0.004257  0.0037    1.0937   
     4. B(H   4,C   0)                1.0900 -0.004263  0.0037    1.0937   
     5. B(H   5,O   1)                1.0500  0.058529 -0.0503    0.9997   
     6. A(O   1,C   0,H   3)          109.47  0.015293   -1.71    107.76   
     7. A(O   1,C   0,H   2)          109.47  0.005043   -0.51    108.95   
     8. A(O   1,C   0,H   4)          109.47  0.015294   -1.71    107.76   
     9. A(H   2,C   0,H   4)          109.47 -0.011149    1.26    110.73   
    10. A(H   3,C   0,H   4)          109.47 -0.013332    1.43    110.90   
    11. A(H   2,C   0,H   3)          109.47 -0.011149    1.26    110.73   
    12. A(C   0,O   1,H   5)          109.48  0.028080   -3.20    106.28   
    13. D(H   5,O   1,C   0,H   3)    120.00 -0.001203    0.17    120.17   
    14. D(H   5,O   1,C   0,H   4)   -120.00  0.001203   -0.17   -120.17   
    15. D(H   5,O   1,C   0,H   2)      0.00  0.000000   -0.00     -0.00   
    ----------------------------------------------------------------------------

         *************************************************************
         *                GEOMETRY OPTIMIZATION CYCLE   2            *
         *************************************************************
---------------------------------
CARTESIAN COORDINATES (ANGSTROEM)
---------------------------------
  C     -1.441191   -0.041507   -0.000059
  O      0.277463    0.038900   -0.000060
  H     -1.747570   -1.091944   -0.000059
  H     -1.798568    0.465723    0.900650
  H     -1.798570    0.465726   -0.900763
  H      0.602186   -0.906568   -0.000060

----------------------------
CARTESIAN COORDINATES (A.U.)
----------------------------
  NO LB      ZA    FRAG    MASS        X           Y           Z
   0 C     6.0000    0    12.011   -2.723457   -0.078436   -0.000112
   1 O     8.0000    0    15.999    0.524329    0.073511   -0.000113
   2 H     1.0000    0     1.008   -3.302428   -2.063475   -0.000112
   3 H     1.0000    0     1.008   -3.398802    0.880089    1.701982
   4 H     1.0000    0     1.008   -3.398805    0.880094   -1.702195
   5 H     1.0000    0     1.008    1.137967   -1.713166   -0.000113

--------------------------------
INTERNAL COORDINATES (ANGSTROEM)
--------------------------------
 C      0   0   0   0.000000     0.000     0.000
 O      1   0   0   1.720534     0.000     0.000
 H      1   2   0   1.094206   108.939     0.000
 H      1   2   3   1.093745   107.741   120.160
 H      1   2   3   1.093742   107.741   239.840
 H      2   1   3   0.999678   106.277     0.000

---------------------------
INTERNAL COORDINATES (A.U.)
---------------------------
 C      0   0   0   0.000000     0.000     0.000
 O      1   0   0   3.251338     0.000     0.000
 H      1   2   0   2.067749   108.939     0.000
 H      1   2   3   2.066878   107.741   120.160
 H      1   2   3   2.066872   107.741   239.840
 H      2   1   3   1.889118   106.277     0.000


Diagonalization of the overlap matrix:
Smallest eigenvalue                        ... 1.410e-02
Time for diagonalization                   ...    0.001 sec
Time for construction of square roots      ...    0.012 sec
Total time needed                          ...    0.013 sec

-------------------
DFT GRID GENERATION
-------------------

General Integration Accuracy     IntAcc      ...  4.340
Radial Grid Type                 RadialGrid  ... Gauss-Chebyshev
Angular Grid (max. acc.)         AngularGrid ... Lebedev-110
Angular grid pruning method      GridPruning ... 3 (G Style)
Weight generation scheme         WeightScheme... Becke
Basis function cutoff            BFCut       ...    1.0000e-11
Integration weight cutoff        WCut        ...    1.0000e-14
Grids for H and He will be reduced by one unit

# of grid points (after initial pruning)     ...   6548 (   0.0 sec)
# of grid points (after weights+screening)   ...   6396 (   0.0 sec)
nearest neighbour list constructed           ...    0.0 sec
Grid point re-assignment to atoms done       ...    0.0 sec
Grid point division into batches done        ...    0.0 sec
Reduced shell lists constructed in    0.0 sec

Total number of grid points                  ...     6396
Total number of batches                      ...      104
Average number of points per batch           ...       61
Average number of grid points per atom       ...     1066
Average number of shells per batch           ...    21.40 (89.17%)
Average number of basis functions per batch  ...    42.92 (89.42%)
Average number of large shells per batch     ...    19.41 (90.70%)
Average number of large basis fcns per batch ...    38.15 (88.88%)
Maximum spatial batch extension              ...  20.19, 18.42, 25.60 au
Average spatial batch extension              ...   4.76,  4.50,  4.57 au

Time for grid setup =    0.089 sec

--------------
SCF ITERATIONS
--------------
ITER       Energy         Delta-E        Max-DP      RMS-DP      [F,P]     Damp
               ***  Starting incremental Fock matrix formation  ***
  0   -115.5271874170   0.000000000000 0.00744703  0.00053122  0.0250731 0.7000
                      *** Initiating the SOSCF procedure ***
                      *** Re-Reading the Fockian *** 
                      *** Removing any level shift *** 
ITER      Energy       Delta-E        Grad      Rot      Max-DP    RMS-DP
  1   -115.52806915  -0.0008817344  0.002968  0.002968  0.018008  0.001552
               *** Restarting incremental Fock matrix formation ***
  2   -115.53011653  -0.0020473786  0.005456  0.006225  0.014721  0.000818
  3   -115.52989219   0.0002243376  0.008849  0.007407  0.010621  0.000526
  4   -115.53027930  -0.0003871120  0.000371  0.000591  0.001358  0.000067
  5   -115.53027969  -0.0000003845  0.000364  0.000280  0.000696  0.000034
  6   -115.53028086  -0.0000011679  0.000052  0.000037  0.000151  0.000007
  7   -115.53028087  -0.0000000143  0.000030  0.000012  0.000050  0.000002
                 **** Energy Check signals convergence ****
              ***Rediagonalizing the Fockian in SOSCF/NRSCF***

               *****************************************************
               *                     SUCCESS                       *
               *           SCF CONVERGED AFTER   8 CYCLES          *
               *****************************************************

Setting up the final grid:

General Integration Accuracy     IntAcc      ...  4.670
Radial Grid Type                 RadialGrid  ... Gauss-Chebyshev
Angular Grid (max. acc.)         AngularGrid ... Lebedev-302
Angular grid pruning method      GridPruning ... 3 (G Style)
Weight generation scheme         WeightScheme... Becke
Basis function cutoff            BFCut       ...    1.0000e-11
Integration weight cutoff        WCut        ...    1.0000e-14
Grids for H and He will be reduced by one unit

# of grid points (after initial pruning)     ...  26000 (   0.0 sec)
# of grid points (after weights+screening)   ...  25227 (   0.0 sec)
nearest neighbour list constructed           ...    0.0 sec
Grid point re-assignment to atoms done       ...    0.0 sec
Grid point division into batches done        ...    0.1 sec
Reduced shell lists constructed in    0.2 sec

Total number of grid points                  ...    25227
Total number of batches                      ...      397
Average number of points per batch           ...       63
Average number of grid points per atom       ...     4204
Average number of shells per batch           ...    19.77 (82.36%)
Average number of basis functions per batch  ...    39.35 (81.99%)
Average number of large shells per batch     ...    17.41 (88.10%)
Average number of large basis fcns per batch ...    34.00 (86.39%)
Maximum spatial batch extension              ...  19.14, 20.64, 20.64 au
Average spatial batch extension              ...   3.10,  3.04,  3.06 au

Final grid set up in    0.3 sec
Final integration                            ... done (   0.4 sec)
Change in XC energy                          ...     0.000043651
Integrated number of electrons               ...    18.000009719
Previous integrated no of electrons          ...    17.997438434
Total Energy       :         -115.53023723 Eh           -3143.73758 eV
  Last Energy change         ...   -5.7279e-09  Tolerance :   1.0000e-08
  Last MAX-Density change    ...    1.2405e-06  Tolerance :   1.0000e-07
             **** THE GBW FILE WAS UPDATED (orca3.gbw) ****
             **** DENSITY FILE WAS UPDATED (orca3.scfp.tmp) ****
             **** ENERGY FILE WAS UPDATED (orca3.en.tmp) ****
Total SCF time: 0 days 0 hours 0 min 6 sec 

-------------------------   --------------------
FINAL SINGLE POINT ENERGY      -115.530237225348
-------------------------   --------------------

------------------------------------------------------------------------------
                         ORCA SCF GRADIENT CALCULATION
------------------------------------------------------------------------------

Gradient of the Kohn-Sham DFT energy:
Kohn-Sham wavefunction type      ... RKS
Hartree-Fock exchange scaling    ...    0.200
Number of operators              ...    1
Number of atoms                  ...    6
Basis set dimensions             ...   48
Integral neglect threshold       ... 2.5e-11
Integral primitive cutoff        ... 2.5e-12

Nuclear repulsion gradient       ... done
One Electron Gradient            ... done
Pre-screening matrix             ... done
Starting the two electron gradient:
Two electron gradient done
Exchange-correlation gradient    ... done

------------------
CARTESIAN GRADIENT
------------------

   1   C   :   -0.074365169    0.003843261   -0.000002028
   2   O   :    0.069152617    0.020712179    0.000000060
   3   H   :   -0.001692183    0.002574252    0.000000096
   4   H   :   -0.004813245   -0.001841842   -0.002938083
   5   H   :   -0.004812651   -0.001842802    0.002939964
   6   H   :    0.016548671   -0.023363330   -0.000000005

Norm of the cartesian gradient     ...    0.107961172
RMS gradient                       ...    0.025446692
MAX gradient                       ...    0.074365169

-------
TIMINGS
-------

Total SCF gradient time            ...        2.446 sec

One electron gradient       ....       0.012 sec  (  0.5%)
Prescreening matrices       ....       0.023 sec  (  0.9%)
Two electron gradient       ....       0.806 sec  ( 33.0%)
XC gradient                 ....       0.983 sec  ( 40.2%)
------------------------------------------------------------------------------
                         ORCA GEOMETRY RELAXATION STEP
------------------------------------------------------------------------------

Reading the OPT-File                    .... done
Getting information on internals        .... done
Copying old internal coords+grads       .... done
Making the new internal coordinates     .... (new redundants).... done
Validating the new internal coordinates .... (new redundants).... done
Calculating the B-matrix                .... done
Calculating the G,G- and P matrices     .... done
Transforming gradient to internals      .... done
Projecting the internal gradient        .... done
Number of atoms                         ....   6
Number of internal coordinates          ....  15
Current Energy                          ....  -115.530237225 Eh
Current gradient norm                   ....     0.107961172 Eh/bohr
Maximum allowed component of the step   ....  0.300
Current trust radius                    ....  0.300
Updating the Hessian (BFGS)             .... done
Forming the augmented Hessian           .... done
Diagonalizing the augmented Hessian     .... done
Last element of RFO vector              ....  0.784716701
Lowest eigenvalues of augmented Hessian:
 -0.071415312  0.002063067  0.111867287  0.175220618  0.175241784
Length of the computed step             ....  0.789908738
Warning: the length of the step is outside the trust region - taking restricted step instead
The input lambda is                     ....    -0.071415
   iter:   1  x=   -0.119972  g=   10.996516 f(x)=     0.533956
   iter:   2  x=   -0.177309  g=    3.771962 f(x)=     0.216272
   iter:   3  x=   -0.228236  g=    1.520092 f(x)=     0.077414
   iter:   4  x=   -0.253430  g=    0.813196 f(x)=     0.020488
   iter:   5  x=   -0.257511  g=    0.622730 f(x)=     0.002542
   iter:   6  x=   -0.257598  g=    0.597673 f(x)=     0.000052
   iter:   7  x=   -0.257598  g=    0.597158 f(x)=     0.000000
   iter:   8  x=   -0.257598  g=    0.597158 f(x)=     0.000000
The output lambda is                    ....    -0.257598 (8 iterations)
The final length of the internal step   ....  0.300000000
Converting the step to cartesian space:
 Initial RMS(Int)=    0.0774596669
Transforming coordinates:
 Iter   0:  RMS(Cart)=    0.0934347996 RMS(Int)=    0.0774205050
 Iter   1:  RMS(Cart)=    0.0007945284 RMS(Int)=    0.0008039062
 Iter   2:  RMS(Cart)=    0.0000334814 RMS(Int)=    0.0000419542
 Iter   3:  RMS(Cart)=    0.0000015803 RMS(Int)=    0.0000019700
 Iter   4:  RMS(Cart)=    0.0000000738 RMS(Int)=    0.0000000922
done
Storing new coordinates                 .... done

                                .--------------------.
          ----------------------|Geometry convergence|---------------------
          Item                value                 Tolerance   Converged
          -----------------------------------------------------------------
          Energy change      -0.03132293            0.00000500      NO
          RMS gradient        0.02376249            0.00010000      NO
          MAX gradient        0.08546088            0.00030000      NO
          RMS step            0.07745967            0.00200000      NO
          MAX step            0.29096770            0.00400000      NO
          ....................................................
          Max(Bonds)      0.1540      Max(Angles)    2.05
          Max(Dihed)        0.12      Max(Improp)    0.00
          -----------------------------------------------------------------

The optimization has not yet converged - more geometry cycles are needed


    ---------------------------------------------------------------------------
                         Redundant Internal Coordinates
                            (Angstroem and degrees)

        Definition                    Value    dE/dq     Step     New-Value
    ----------------------------------------------------------------------------
     1. B(O   1,C   0)                1.7205  0.085461 -0.1540    1.5666   
     2. B(H   2,C   0)                1.0942 -0.001995  0.0021    1.0963   
     3. B(H   3,C   0)                1.0937 -0.001702  0.0018    1.0955   
     4. B(H   4,C   0)                1.0937 -0.001704  0.0018    1.0955   
     5. B(H   5,O   1)                0.9997  0.027514 -0.0302    0.9695   
     6. A(O   1,C   0,H   3)          107.74  0.007091   -0.88    106.86   
     7. A(O   1,C   0,H   2)          108.94  0.000740    0.02    108.96   
     8. A(O   1,C   0,H   4)          107.74  0.007091   -0.88    106.86   
     9. A(H   2,C   0,H   4)          110.71 -0.004388    0.52    111.23   
    10. A(H   3,C   0,H   4)          110.88 -0.005379    0.63    111.50   
    11. A(H   2,C   0,H   3)          110.71 -0.004388    0.52    111.23   
    12. A(C   0,O   1,H   5)          106.28  0.015162   -2.05    104.23   
    13. D(H   5,O   1,C   0,H   3)    120.16 -0.000716    0.12    120.28   
    14. D(H   5,O   1,C   0,H   4)   -120.16  0.000716   -0.12   -120.28   
    15. D(H   5,O   1,C   0,H   2)     -0.00  0.000000   -0.00     -0.00   
    ----------------------------------------------------------------------------

         *************************************************************
         *                GEOMETRY OPTIMIZATION CYCLE   3            *
         *************************************************************
---------------------------------
CARTESIAN COORDINATES (ANGSTROEM)
---------------------------------
  C     -1.389939   -0.050393   -0.000059
  O      0.173496    0.048525   -0.000059
  H     -1.679962   -1.107661   -0.000059
  H     -1.740264    0.457066    0.905440
  H     -1.740266    0.457069   -0.905553
  H      0.470685   -0.874277   -0.000060

----------------------------
CARTESIAN COORDINATES (A.U.)
----------------------------
  NO LB      ZA    FRAG    MASS        X           Y           Z
   0 C     6.0000    0    12.011   -2.626603   -0.095229   -0.000111
   1 O     8.0000    0    15.999    0.327860    0.091699   -0.000112
   2 H     1.0000    0     1.008   -3.174668   -2.093175   -0.000112
   3 H     1.0000    0     1.008   -3.288623    0.863730    1.711033
   4 H     1.0000    0     1.008   -3.288627    0.863736   -1.711247
   5 H     1.0000    0     1.008    0.889466   -1.652145   -0.000113

--------------------------------
INTERNAL COORDINATES (ANGSTROEM)
--------------------------------
 C      0   0   0   0.000000     0.000     0.000
 O      1   0   0   1.566561     0.000     0.000
 H      1   2   0   1.096325   108.960     0.000
 H      1   2   3   1.095523   106.852   120.273
 H      1   2   3   1.095521   106.852   239.726
 H      2   1   3   0.969477   104.231     0.000

---------------------------
INTERNAL COORDINATES (A.U.)
---------------------------
 C      0   0   0   0.000000     0.000     0.000
 O      1   0   0   2.960371     0.000     0.000
 H      1   2   0   2.071754   108.960     0.000
 H      1   2   3   2.070238   106.852   120.273
 H      1   2   3   2.070236   106.852   239.726
 H      2   1   3   1.832046   104.231     0.000


Diagonalization of the overlap matrix:
Smallest eigenvalue                        ... 1.261e-02
Time for diagonalization                   ...    0.001 sec
Time for construction of square roots      ...    0.166 sec
Total time needed                          ...    0.167 sec

-------------------
DFT GRID GENERATION
-------------------

General Integration Accuracy     IntAcc      ...  4.340
Radial Grid Type                 RadialGrid  ... Gauss-Chebyshev
Angular Grid (max. acc.)         AngularGrid ... Lebedev-110
Angular grid pruning method      GridPruning ... 3 (G Style)
Weight generation scheme         WeightScheme... Becke
Basis function cutoff            BFCut       ...    1.0000e-11
Integration weight cutoff        WCut        ...    1.0000e-14
Grids for H and He will be reduced by one unit

# of grid points (after initial pruning)     ...   6548 (   0.0 sec)
# of grid points (after weights+screening)   ...   6386 (   0.0 sec)
nearest neighbour list constructed           ...    0.0 sec
Grid point re-assignment to atoms done       ...    0.0 sec
Grid point division into batches done        ...    0.0 sec
Reduced shell lists constructed in    0.0 sec

Total number of grid points                  ...     6386
Total number of batches                      ...      103
Average number of points per batch           ...       62
Average number of grid points per atom       ...     1064
Average number of shells per batch           ...    21.50 (89.58%)
Average number of basis functions per batch  ...    43.19 (89.98%)
Average number of large shells per batch     ...    19.84 (92.26%)
Average number of large basis fcns per batch ...    39.34 (91.07%)
Maximum spatial batch extension              ...  19.88, 18.50, 25.65 au
Average spatial batch extension              ...   4.84,  4.44,  4.57 au

Time for grid setup =    0.100 sec

--------------
SCF ITERATIONS
--------------
ITER       Energy         Delta-E        Max-DP      RMS-DP      [F,P]     Damp
               ***  Starting incremental Fock matrix formation  ***
  0   -115.5482661209   0.000000000000 0.00855073  0.00062047  0.0311560 0.7000
                      *** Initiating the SOSCF procedure ***
                      *** Re-Reading the Fockian *** 
                      *** Removing any level shift *** 
ITER      Energy       Delta-E        Grad      Rot      Max-DP    RMS-DP
  1   -115.54956717  -0.0013010509  0.003166  0.003166  0.024843  0.001858
               *** Restarting incremental Fock matrix formation ***
  2   -115.55281054  -0.0032433687  0.004528  0.004711  0.011398  0.000695
  3   -115.55279494   0.0000156040  0.006118  0.003068  0.006840  0.000377
  4   -115.55295042  -0.0001554794  0.000508  0.000724  0.001890  0.000097
  5   -115.55295088  -0.0000004638  0.000527  0.000399  0.001032  0.000049
  6   -115.55295342  -0.0000025380  0.000056  0.000052  0.000127  0.000008
  7   -115.55295344  -0.0000000222  0.000029  0.000016  0.000040  0.000002
                 **** Energy Check signals convergence ****
              ***Rediagonalizing the Fockian in SOSCF/NRSCF***

               *****************************************************
               *                     SUCCESS                       *
               *           SCF CONVERGED AFTER   8 CYCLES          *
               *****************************************************

Setting up the final grid:

General Integration Accuracy     IntAcc      ...  4.670
Radial Grid Type                 RadialGrid  ... Gauss-Chebyshev
Angular Grid (max. acc.)         AngularGrid ... Lebedev-302
Angular grid pruning method      GridPruning ... 3 (G Style)
Weight generation scheme         WeightScheme... Becke
Basis function cutoff            BFCut       ...    1.0000e-11
Integration weight cutoff        WCut        ...    1.0000e-14
Grids for H and He will be reduced by one unit

# of grid points (after initial pruning)     ...  26000 (   0.0 sec)
# of grid points (after weights+screening)   ...  25189 (   0.0 sec)
nearest neighbour list constructed           ...    0.0 sec
Grid point re-assignment to atoms done       ...    0.0 sec
Grid point division into batches done        ...    0.1 sec
Reduced shell lists constructed in    0.2 sec

Total number of grid points                  ...    25189
Total number of batches                      ...      397
Average number of points per batch           ...       63
Average number of grid points per atom       ...     4198
Average number of shells per batch           ...    19.87 (82.81%)
Average number of basis functions per batch  ...    39.65 (82.60%)
Average number of large shells per batch     ...    17.83 (89.73%)
Average number of large basis fcns per batch ...    34.92 (88.07%)
Maximum spatial batch extension              ...  18.84, 20.64, 18.20 au
Average spatial batch extension              ...   3.15,  3.01,  3.01 au

Final grid set up in    0.3 sec
Final integration                            ... done (   0.3 sec)
Change in XC energy                          ...    -0.000054296
Integrated number of electrons               ...    18.000020305
Previous integrated no of electrons          ...    17.997203487
Total Energy       :         -115.55300774 Eh           -3144.35720 eV
  Last Energy change         ...   -6.7945e-09  Tolerance :   1.0000e-08
  Last MAX-Density change    ...    1.8439e-06  Tolerance :   1.0000e-07
             **** THE GBW FILE WAS UPDATED (orca3.gbw) ****
             **** DENSITY FILE WAS UPDATED (orca3.scfp.tmp) ****
             **** ENERGY FILE WAS UPDATED (orca3.en.tmp) ****
Total SCF time: 0 days 0 hours 0 min 5 sec 

-------------------------   --------------------
FINAL SINGLE POINT ENERGY      -115.553007742536
-------------------------   --------------------

------------------------------------------------------------------------------
                         ORCA SCF GRADIENT CALCULATION
------------------------------------------------------------------------------

Gradient of the Kohn-Sham DFT energy:
Kohn-Sham wavefunction type      ... RKS
Hartree-Fock exchange scaling    ...    0.200
Number of operators              ...    1
Number of atoms                  ...    6
Basis set dimensions             ...   48
Integral neglect threshold       ... 2.5e-11
Integral primitive cutoff        ... 2.5e-12

Nuclear repulsion gradient       ... done
One Electron Gradient            ... done
Pre-screening matrix             ... done
Starting the two electron gradient:
Two electron gradient done
Exchange-correlation gradient    ... done

------------------
CARTESIAN GRADIENT
------------------

   1   C   :   -0.066481824   -0.002679336   -0.000000733
   2   O   :    0.055685109    0.007077227    0.000000036
   3   H   :    0.003626907    0.000705741    0.000000091
   4   H   :    0.003104244   -0.000620936   -0.000943830
   5   H   :    0.003104382   -0.000621165    0.000944428
   6   H   :    0.000971627   -0.003771823   -0.000000005

Norm of the cartesian gradient     ...    0.087341749
RMS gradient                       ...    0.020586648
MAX gradient                       ...    0.066481824

-------
TIMINGS
-------

Total SCF gradient time            ...        2.504 sec

One electron gradient       ....       0.012 sec  (  0.5%)
Prescreening matrices       ....       0.023 sec  (  0.9%)
Two electron gradient       ....       0.821 sec  ( 32.8%)
XC gradient                 ....       1.023 sec  ( 40.9%)
------------------------------------------------------------------------------
                         ORCA GEOMETRY RELAXATION STEP
------------------------------------------------------------------------------

Reading the OPT-File                    .... done
Getting information on internals        .... done
Copying old internal coords+grads       .... done
Making the new internal coordinates     .... (new redundants).... done
Validating the new internal coordinates .... (new redundants).... done
Calculating the B-matrix                .... done
Calculating the G,G- and P matrices     .... done
Transforming gradient to internals      .... done
Projecting the internal gradient        .... done
Number of atoms                         ....   6
Number of internal coordinates          ....  15
Current Energy                          ....  -115.553007743 Eh
Current gradient norm                   ....     0.087341749 Eh/bohr
Maximum allowed component of the step   ....  0.300
Current trust radius                    ....  0.300
Updating the Hessian (BFGS)             .... done
Forming the augmented Hessian           .... done
Diagonalizing the augmented Hessian     .... done
Last element of RFO vector              ....  0.904412407
Lowest eigenvalues of augmented Hessian:
 -0.027094641  0.002063067  0.121634551  0.175220618  0.175260375
Length of the computed step             ....  0.471753088
Warning: the length of the step is outside the trust region - taking restricted step instead
The input lambda is                     ....    -0.027095
   iter:   1  x=   -0.063337  g=    3.657318 f(x)=     0.132551
   iter:   2  x=   -0.088524  g=    1.673043 f(x)=     0.042138
   iter:   3  x=   -0.096252  g=    1.073326 f(x)=     0.008295
   iter:   4  x=   -0.096776  g=    0.948155 f(x)=     0.000497
   iter:   5  x=   -0.096778  g=    0.940386 f(x)=     0.000002
   iter:   6  x=   -0.096778  g=    0.940355 f(x)=     0.000000
   iter:   7  x=   -0.096778  g=    0.940355 f(x)=     0.000000
The output lambda is                    ....    -0.096778 (7 iterations)
The final length of the internal step   ....  0.300000000
Converting the step to cartesian space:
 Initial RMS(Int)=    0.0774596669
Transforming coordinates:
 Iter   0:  RMS(Cart)=    0.0724950852 RMS(Int)=    0.0774159978
 Iter   1:  RMS(Cart)=    0.0005032142 RMS(Int)=    0.0005629805
 Iter   2:  RMS(Cart)=    0.0000356944 RMS(Int)=    0.0000321071
 Iter   3:  RMS(Cart)=    0.0000017104 RMS(Int)=    0.0000015175
 Iter   4:  RMS(Cart)=    0.0000000709 RMS(Int)=    0.0000000627
done
Storing new coordinates                 .... done

                                .--------------------.
          ----------------------|Geometry convergence|---------------------
          Item                value                 Tolerance   Converged
          -----------------------------------------------------------------
          Energy change      -0.02277052            0.00000500      NO
          RMS gradient        0.01483655            0.00010000      NO
          MAX gradient        0.05672874            0.00030000      NO
          RMS step            0.07745967            0.00200000      NO
          MAX step            0.29687306            0.00400000      NO
          ....................................................
          Max(Bonds)      0.1571      Max(Angles)    1.01
          Max(Dihed)        0.05      Max(Improp)    0.00
          -----------------------------------------------------------------

The optimization has not yet converged - more geometry cycles are needed


    ---------------------------------------------------------------------------
                         Redundant Internal Coordinates
                            (Angstroem and degrees)

        Definition                    Value    dE/dq     Step     New-Value
    ----------------------------------------------------------------------------
     1. B(O   1,C   0)                1.5666  0.056729 -0.1571    1.4095   
     2. B(H   2,C   0)                1.0963 -0.001637  0.0036    1.0999   
     3. B(H   3,C   0)                1.0955 -0.002063  0.0044    1.0999   
     4. B(H   4,C   0)                1.0955 -0.002063  0.0044    1.0999   
     5. B(H   5,O   1)                0.9695  0.003936 -0.0101    0.9594   
     6. A(O   1,C   0,H   3)          106.85 -0.002653    0.72    107.57   
     7. A(O   1,C   0,H   2)          108.96 -0.004122    1.01    109.97   
     8. A(O   1,C   0,H   4)          106.85 -0.002653    0.72    107.57   
     9. A(H   2,C   0,H   4)          111.23  0.002896   -0.83    110.40   
    10. A(H   3,C   0,H   4)          111.49  0.002949   -0.87    110.62   
    11. A(H   2,C   0,H   3)          111.23  0.002896   -0.83    110.40   
    12. A(C   0,O   1,H   5)          104.23 -0.000494    0.40    104.63   
    13. D(H   5,O   1,C   0,H   3)    120.27 -0.000344    0.05    120.33   
    14. D(H   5,O   1,C   0,H   4)   -120.27  0.000344   -0.05   -120.33   
    15. D(H   5,O   1,C   0,H   2)     -0.00  0.000000   -0.00     -0.00   
    ----------------------------------------------------------------------------

         *************************************************************
         *                GEOMETRY OPTIMIZATION CYCLE   4            *
         *************************************************************
---------------------------------
CARTESIAN COORDINATES (ANGSTROEM)
---------------------------------
  C     -1.331273   -0.053387   -0.000058
  O      0.074267    0.051682   -0.000059
  H     -1.629241   -1.112139   -0.000059
  H     -1.702591    0.450061    0.904673
  H     -1.702593    0.450065   -0.904787
  H      0.385180   -0.855951   -0.000060

----------------------------
CARTESIAN COORDINATES (A.U.)
----------------------------
  NO LB      ZA    FRAG    MASS        X           Y           Z
   0 C     6.0000    0    12.011   -2.515742   -0.100887   -0.000110
   1 O     8.0000    0    15.999    0.140345    0.097665   -0.000112
   2 H     1.0000    0     1.008   -3.078820   -2.101638   -0.000111
   3 H     1.0000    0     1.008   -3.217430    0.850492    1.709584
   4 H     1.0000    0     1.008   -3.217434    0.850499   -1.709799
   5 H     1.0000    0     1.008    0.727885   -1.617513   -0.000113

--------------------------------
INTERNAL COORDINATES (ANGSTROEM)
--------------------------------
 C      0   0   0   0.000000     0.000     0.000
 O      1   0   0   1.409462     0.000     0.000
 H      1   2   0   1.099882   109.993     0.000
 H      1   2   3   1.099943   107.609   120.349
 H      1   2   3   1.099943   107.609   239.651
 H      2   1   3   0.959408   104.634     0.000

---------------------------
INTERNAL COORDINATES (A.U.)
---------------------------
 C      0   0   0   0.000000     0.000     0.000
 O      1   0   0   2.663498     0.000     0.000
 H      1   2   0   2.078476   109.993     0.000
 H      1   2   3   2.078591   107.609   120.349
 H      1   2   3   2.078592   107.609   239.651
 H      2   1   3   1.813019   104.634     0.000


Diagonalization of the overlap matrix:
Smallest eigenvalue                        ... 1.119e-02
Time for diagonalization                   ...    0.001 sec
Time for construction of square roots      ...    0.027 sec
Total time needed                          ...    0.028 sec

-------------------
DFT GRID GENERATION
-------------------

General Integration Accuracy     IntAcc      ...  4.340
Radial Grid Type                 RadialGrid  ... Gauss-Chebyshev
Angular Grid (max. acc.)         AngularGrid ... Lebedev-110
Angular grid pruning method      GridPruning ... 3 (G Style)
Weight generation scheme         WeightScheme... Becke
Basis function cutoff            BFCut       ...    1.0000e-11
Integration weight cutoff        WCut        ...    1.0000e-14
Grids for H and He will be reduced by one unit

# of grid points (after initial pruning)     ...   6548 (   0.0 sec)
# of grid points (after weights+screening)   ...   6379 (   0.0 sec)
nearest neighbour list constructed           ...    0.0 sec
Grid point re-assignment to atoms done       ...    0.0 sec
Grid point division into batches done        ...    0.0 sec
Reduced shell lists constructed in    0.0 sec

Total number of grid points                  ...     6379
Total number of batches                      ...      102
Average number of points per batch           ...       62
Average number of grid points per atom       ...     1063
Average number of shells per batch           ...    21.55 (89.81%)
Average number of basis functions per batch  ...    43.26 (90.13%)
Average number of large shells per batch     ...    20.15 (93.47%)
Average number of large basis fcns per batch ...    40.17 (92.84%)
Maximum spatial batch extension              ...  19.62, 18.54, 25.60 au
Average spatial batch extension              ...   4.88,  4.42,  4.47 au

Time for grid setup =    0.087 sec

--------------
SCF ITERATIONS
--------------
ITER       Energy         Delta-E        Max-DP      RMS-DP      [F,P]     Damp
               ***  Starting incremental Fock matrix formation  ***
  0   -115.5535719846   0.000000000000 0.01148693  0.00081512  0.0432921 0.7000
  1   -115.5557030491  -0.002131064459 0.00995634  0.00073545  0.0330656 0.7000
                               ***Turning on DIIS***
  2   -115.5572970372  -0.001593988124 0.02459153  0.00191631  0.0242425 0.0000
                      *** Initiating the SOSCF procedure ***
                           *** Shutting down DIIS ***
                      *** Re-Reading the Fockian *** 
                      *** Removing any level shift *** 
ITER      Energy       Delta-E        Grad      Rot      Max-DP    RMS-DP
  3   -115.56120253  -0.0039054950  0.001409  0.001409  0.003761  0.000258
               *** Restarting incremental Fock matrix formation ***
  4   -115.56124130  -0.0000387686  0.001097  0.001485  0.003842  0.000215
  5   -115.56124119   0.0000001118  0.001631  0.000628  0.001761  0.000105
  6   -115.56125245  -0.0000112628  0.000115  0.000150  0.000354  0.000019
  7   -115.56125246  -0.0000000103  0.000108  0.000083  0.000219  0.000010
  8   -115.56125258  -0.0000001172  0.000013  0.000014  0.000022  0.000002
  9   -115.56125258  -0.0000000010  0.000007  0.000004  0.000007  0.000001
                 **** Energy Check signals convergence ****
              ***Rediagonalizing the Fockian in SOSCF/NRSCF***

               *****************************************************
               *                     SUCCESS                       *
               *           SCF CONVERGED AFTER  10 CYCLES          *
               *****************************************************

Setting up the final grid:

General Integration Accuracy     IntAcc      ...  4.670
Radial Grid Type                 RadialGrid  ... Gauss-Chebyshev
Angular Grid (max. acc.)         AngularGrid ... Lebedev-302
Angular grid pruning method      GridPruning ... 3 (G Style)
Weight generation scheme         WeightScheme... Becke
Basis function cutoff            BFCut       ...    1.0000e-11
Integration weight cutoff        WCut        ...    1.0000e-14
Grids for H and He will be reduced by one unit

# of grid points (after initial pruning)     ...  26000 (   0.0 sec)
# of grid points (after weights+screening)   ...  25141 (   0.0 sec)
nearest neighbour list constructed           ...    0.0 sec
Grid point re-assignment to atoms done       ...    0.0 sec
Grid point division into batches done        ...    0.1 sec
Reduced shell lists constructed in    0.2 sec

Total number of grid points                  ...    25141
Total number of batches                      ...      397
Average number of points per batch           ...       63
Average number of grid points per atom       ...     4190
Average number of shells per batch           ...    20.01 (83.36%)
Average number of basis functions per batch  ...    39.96 (83.24%)
Average number of large shells per batch     ...    18.16 (90.77%)
Average number of large basis fcns per batch ...    35.89 (89.83%)
Maximum spatial batch extension              ...  18.55, 20.64, 16.88 au
Average spatial batch extension              ...   3.12,  2.96,  3.00 au

Final grid set up in    0.3 sec
Final integration                            ... done (   0.3 sec)
Change in XC energy                          ...    -0.000047033
Integrated number of electrons               ...    18.000027775
Previous integrated no of electrons          ...    17.997509658
Total Energy       :         -115.56129961 Eh           -3144.58283 eV
  Last Energy change         ...   -3.0568e-10  Tolerance :   1.0000e-08
  Last MAX-Density change    ...    1.7344e-07  Tolerance :   1.0000e-07
             **** THE GBW FILE WAS UPDATED (orca3.gbw) ****
             **** DENSITY FILE WAS UPDATED (orca3.scfp.tmp) ****
             **** ENERGY FILE WAS UPDATED (orca3.en.tmp) ****
Total SCF time: 0 days 0 hours 0 min 6 sec 

-------------------------   --------------------
FINAL SINGLE POINT ENERGY      -115.561299614056
-------------------------   --------------------

------------------------------------------------------------------------------
                         ORCA SCF GRADIENT CALCULATION
------------------------------------------------------------------------------

Gradient of the Kohn-Sham DFT energy:
Kohn-Sham wavefunction type      ... RKS
Hartree-Fock exchange scaling    ...    0.200
Number of operators              ...    1
Number of atoms                  ...    6
Basis set dimensions             ...   48
Integral neglect threshold       ... 2.5e-11
Integral primitive cutoff        ... 2.5e-12

Nuclear repulsion gradient       ... done
One Electron Gradient            ... done
Pre-screening matrix             ... done
Starting the two electron gradient:
Two electron gradient done
Exchange-correlation gradient    ... done

------------------
CARTESIAN GRADIENT
------------------

   1   C   :   -0.011676238   -0.004961107    0.000000155
   2   O   :   -0.007869651    0.004518838    0.000000034
   3   H   :    0.008588068   -0.000146397    0.000000074
   4   H   :    0.009885664    0.000054077   -0.000156295
   5   H   :    0.009885527    0.000054321    0.000156023
   6   H   :   -0.008780515    0.000569486   -0.000000005

Norm of the cartesian gradient     ...    0.024289940
RMS gradient                       ...    0.005725194
MAX gradient                       ...    0.011676238

-------
TIMINGS
-------

Total SCF gradient time            ...        2.551 sec

One electron gradient       ....       0.012 sec  (  0.5%)
Prescreening matrices       ....       0.023 sec  (  0.9%)
Two electron gradient       ....       0.832 sec  ( 32.6%)
XC gradient                 ....       1.071 sec  ( 42.0%)
------------------------------------------------------------------------------
                         ORCA GEOMETRY RELAXATION STEP
------------------------------------------------------------------------------

Reading the OPT-File                    .... done
Getting information on internals        .... done
Copying old internal coords+grads       .... done
Making the new internal coordinates     .... (new redundants).... done
Validating the new internal coordinates .... (new redundants).... done
Calculating the B-matrix                .... done
Calculating the G,G- and P matrices     .... done
Transforming gradient to internals      .... done
Projecting the internal gradient        .... done
Number of atoms                         ....   6
Number of internal coordinates          ....  15
Current Energy                          ....  -115.561299614 Eh
Current gradient norm                   ....     0.024289940 Eh/bohr
Maximum allowed component of the step   ....  0.300
Current trust radius                    ....  0.300
Updating the Hessian (BFGS)             .... done
Forming the augmented Hessian           .... done
Diagonalizing the augmented Hessian     .... done
Last element of RFO vector              ....  0.997171211
Lowest eigenvalues of augmented Hessian:
 -0.002423172  0.002063067  0.175173577  0.175220618  0.184750188
Length of the computed step             ....  0.075376884
The final length of the internal step   ....  0.075376884
Converting the step to cartesian space:
 Initial RMS(Int)=    0.0194622279
Transforming coordinates:
 Iter   0:  RMS(Cart)=    0.0293474811 RMS(Int)=    0.0195948952
 Iter   1:  RMS(Cart)=    0.0003091934 RMS(Int)=    0.0003806251
 Iter   2:  RMS(Cart)=    0.0000078453 RMS(Int)=    0.0000065835
 Iter   3:  RMS(Cart)=    0.0000002131 RMS(Int)=    0.0000002606
 Iter   4:  RMS(Cart)=    0.0000000058 RMS(Int)=    0.0000000061
done
Storing new coordinates                 .... done

                                .--------------------.
          ----------------------|Geometry convergence|---------------------
          Item                value                 Tolerance   Converged
          -----------------------------------------------------------------
          Energy change      -0.00829187            0.00000500      NO
          RMS gradient        0.00842686            0.00010000      NO
          MAX gradient        0.01625773            0.00030000      NO
          RMS step            0.01946223            0.00200000      NO
          MAX step            0.03538189            0.00400000      NO
          ....................................................
          Max(Bonds)      0.0181      Max(Angles)    2.03
          Max(Dihed)        0.05      Max(Improp)    0.00
          -----------------------------------------------------------------

The optimization has not yet converged - more geometry cycles are needed


    ---------------------------------------------------------------------------
                         Redundant Internal Coordinates
                            (Angstroem and degrees)

        Definition                    Value    dE/dq     Step     New-Value
    ----------------------------------------------------------------------------
     1. B(O   1,C   0)                1.4095 -0.016258  0.0181    1.4276   
     2. B(H   2,C   0)                1.0999 -0.002182  0.0030    1.1028   
     3. B(H   3,C   0)                1.0999 -0.003442  0.0043    1.1043   
     4. B(H   4,C   0)                1.0999 -0.003442  0.0043    1.1043   
     5. B(H   5,O   1)                0.9594 -0.003338 -0.0024    0.9570   
     6. A(O   1,C   0,H   3)          107.61 -0.010255    1.32    108.93   
     7. A(O   1,C   0,H   2)          109.99 -0.008518    1.24    111.23   
     8. A(O   1,C   0,H   4)          107.61 -0.010255    1.32    108.93   
     9. A(H   2,C   0,H   4)          110.43  0.009052   -1.24    109.19   
    10. A(H   3,C   0,H   4)          110.68  0.009758   -1.39    109.28   
[...]

-------------------------------------------------------------------------------
                                 ORCA SCF
-------------------------------------------------------------------------------

------------
SCF SETTINGS
------------
Hamiltonian:
 Density Functional     Method          .... DFT(GTOs)
 Exchange Functional    Exchange        .... B88
   X-Alpha parameter    XAlpha          ....  0.666667
   Becke's b parameter  XBeta           ....  0.004200
 Correlation Functional Correlation     .... LYP
 LDA part of GGA corr.  LDAOpt          .... VWN-5
 Gradients option       PostSCFGGA      .... off
 Hybrid DFT is turned on
   Fraction HF Exchange ScalHFX         ....  0.200000
   Scaling of DF-GGA-X  ScalDFX         ....  0.720000
   Scaling of DF-GGA-C  ScalDFC         ....  0.810000
   Scaling of DF-LDA-C  ScalLDAC        ....  1.000000
   Perturbative correction              ....  0.000000


General Settings:
 Integral files         IntName         .... orca3
 Hartree-Fock type      HFTyp           .... RHF
 Total Charge           Charge          ....    0
 Multiplicity           Mult            ....    1
 Number of Electrons    NEL             ....   18
 Basis Dimension        Dim             ....   48
 Nuclear Repulsion      ENuc            ....     40.2495665792 Eh

Convergence Acceleration:
 DIIS                   CNVDIIS         .... on
   Start iteration      DIISMaxIt       ....    12
   Startup error        DIISStart       ....  0.200000
   # of expansion vecs  DIISMaxEq       ....     5
   Bias factor          DIISBfac        ....   1.050
   Max. coefficient     DIISMaxC        ....  10.000
 Newton-Raphson         CNVNR           .... off
 SOSCF                  CNVSOSCF        .... on
   Start iteration      SOSCFMaxIt      ....   150
   Startup grad/error   SOSCFStart      ....  0.003300
 Level Shifting         CNVShift        .... on
   Level shift para.    LevelShift      ....    0.2500
   Turn off err/grad.   ShiftErr        ....    0.0010
 Zerner damping         CNVZerner       .... off
 Static damping         CNVDamp         .... on
   Fraction old density DampFac         ....    0.7000
   Max. Damping (<1)    DampMax         ....    0.9800
   Min. Damping (>=0)   DampMin         ....    0.0000
   Turn off err/grad.   DampErr         ....    0.1000
 Fernandez-Rico         CNVRico         .... off

SCF Procedure:
 Maximum # iterations   MaxIter         ....   125
 SCF integral mode      SCFMode         .... Direct
   Integral package                     .... LIBINT
 Reset frequeny         DirectResetFreq ....    20
 Integral Threshold     Thresh          ....  2.500e-11 Eh
 Primitive CutOff       TCut            ....  2.500e-12 Eh

Convergence Tolerance:
 Convergence Check Mode ConvCheckMode   .... Total+1el-Energy
 Energy Change          TolE            ....  1.000e-08 Eh
 1-El. energy change                    ....  1.000e-05 Eh
 Orbital Gradient       TolG            ....  1.000e-05
 Orbital Rotation angle TolX            ....  1.000e-05
 DIIS Error             TolErr          ....  5.000e-07


Diagonalization of the overlap matrix:
Smallest eigenvalue                        ... 1.201e-02
Time for diagonalization                   ...    0.001 sec
Time for construction of square roots      ...    0.027 sec
Total time needed                          ...    0.028 sec

---------------------
INITIAL GUESS: MOREAD
---------------------
Guess MOs are being read from file: orca3.gbw
Input Geometry matches current geometry (good)
Input basis set matches current basis set (good)
MOs were renormalized
MOs were reorthogonalized
                      ------------------
                      INITIAL GUESS DONE (   0.0 sec)
                      ------------------
-------------------
DFT GRID GENERATION
-------------------

General Integration Accuracy     IntAcc      ...  4.340
Radial Grid Type                 RadialGrid  ... Gauss-Chebyshev
Angular Grid (max. acc.)         AngularGrid ... Lebedev-110
Angular grid pruning method      GridPruning ... 3 (G Style)
Weight generation scheme         WeightScheme... Becke
Basis function cutoff            BFCut       ...    1.0000e-11
Integration weight cutoff        WCut        ...    1.0000e-14
Grids for H and He will be reduced by one unit

# of grid points (after initial pruning)     ...   6548 (   0.0 sec)
# of grid points (after weights+screening)   ...   6377 (   0.0 sec)
nearest neighbour list constructed           ...    0.0 sec
Grid point re-assignment to atoms done       ...    0.0 sec
Grid point division into batches done        ...    0.0 sec
Reduced shell lists constructed in    0.0 sec

Total number of grid points                  ...     6377
Total number of batches                      ...      103
Average number of points per batch           ...       61
Average number of grid points per atom       ...     1063
Average number of shells per batch           ...    21.53 (89.70%)
Average number of basis functions per batch  ...    43.26 (90.12%)
Average number of large shells per batch     ...    20.02 (92.99%)
Average number of large basis fcns per batch ...    39.85 (92.11%)
Maximum spatial batch extension              ...  19.72, 18.53, 25.60 au
Average spatial batch extension              ...   4.91,  4.57,  4.58 au

Time for grid setup =    0.064 sec

--------------
SCF ITERATIONS
--------------
ITER       Energy         Delta-E        Max-DP      RMS-DP      [F,P]     Damp
               ***  Starting incremental Fock matrix formation  ***
                      *** Initiating the SOSCF procedure ***
                      *** Re-Reading the Fockian *** 
                      *** Removing any level shift *** 
ITER      Energy       Delta-E        Grad      Rot      Max-DP    RMS-DP
  0   -115.56344578 -115.5634457827  0.000116  0.000116  0.000299  0.000017
               *** Restarting incremental Fock matrix formation ***
  1   -115.56344599  -0.0000002049  0.000032  0.000037  0.000079  0.000005
  2   -115.56344600  -0.0000000097  0.000026  0.000014  0.000041  0.000003
  3   -115.56344600  -0.0000000017  0.000013  0.000008  0.000019  0.000001
                  ***Gradient check signals convergence***
              ***Rediagonalizing the Fockian in SOSCF/NRSCF***

               *****************************************************
               *                     SUCCESS                       *
               *           SCF CONVERGED AFTER   4 CYCLES          *
               *****************************************************

Setting up the final grid:

General Integration Accuracy     IntAcc      ...  4.670
Radial Grid Type                 RadialGrid  ... Gauss-Chebyshev
Angular Grid (max. acc.)         AngularGrid ... Lebedev-302
Angular grid pruning method      GridPruning ... 3 (G Style)
Weight generation scheme         WeightScheme... Becke
Basis function cutoff            BFCut       ...    1.0000e-11
Integration weight cutoff        WCut        ...    1.0000e-14
Grids for H and He will be reduced by one unit

# of grid points (after initial pruning)     ...  26000 (   0.0 sec)
# of grid points (after weights+screening)   ...  25146 (   0.0 sec)
nearest neighbour list constructed           ...    0.0 sec
Grid point re-assignment to atoms done       ...    0.0 sec
Grid point division into batches done        ...    0.1 sec
Reduced shell lists constructed in    0.2 sec

Total number of grid points                  ...    25146
Total number of batches                      ...      395
Average number of points per batch           ...       63
Average number of grid points per atom       ...     4191
Average number of shells per batch           ...    19.92 (83.00%)
Average number of basis functions per batch  ...    39.72 (82.75%)
Average number of large shells per batch     ...    18.07 (90.72%)
Average number of large basis fcns per batch ...    35.60 (89.61%)
Maximum spatial batch extension              ...  18.70, 20.64, 16.88 au
Average spatial batch extension              ...   3.11,  3.03,  3.00 au

Final grid set up in    0.3 sec
Final integration                            ... done (   0.3 sec)
Change in XC energy                          ...     0.000018385
Integrated number of electrons               ...    18.000034911
Previous integrated no of electrons          ...    17.998187522

----------------
TOTAL SCF ENERGY
----------------

Total Energy       :         -115.56342762 Eh           -3144.64074 eV

Components:
Nuclear Repulsion  :           40.24956658 Eh            1095.24639 eV
Electronic Energy  :         -155.81299419 Eh           -4239.88712 eV

One Electron Energy:         -236.79907083 Eh           -6443.63031 eV
Two Electron Energy:           80.98607664 Eh            2203.74318 eV

Virial components:
Potential Energy   :         -230.13820589 Eh           -6262.37896 eV
Kinetic Energy     :          114.57477827 Eh            3117.73822 eV
Virial Ratio       :            2.00862886


DFT components:
N(Alpha)           :        9.000017455518 electrons
N(Beta)            :        9.000017455518 electrons
N(Total)           :       18.000034911036 electrons
E(X)               :      -11.770868328167 Eh       
E(C)               :       -0.703180284959 Eh       
E(XC)              :      -12.474048613126 Eh       

---------------
SCF CONVERGENCE
---------------

  Last Energy change         ...   -1.2629e-09  Tolerance :   1.0000e-08
  Last MAX-Density change    ...    2.6532e-06  Tolerance :   1.0000e-07
  Last RMS-Density change    ...    1.4280e-07  Tolerance :   5.0000e-09
  Last Orbital Gradient      ...    6.2158e-07  Tolerance :   1.0000e-05
  Last Orbital Rotation      ...    9.5975e-07  Tolerance :   1.0000e-05

             **** THE GBW FILE WAS UPDATED (orca3.gbw) ****
             **** DENSITY FILE WAS UPDATED (orca3.scfp.tmp) ****
             **** ENERGY FILE WAS UPDATED (orca3.en.tmp) ****
----------------
ORBITAL ENERGIES
----------------

  NO   OCC          E(Eh)            E(eV) 
   0   2.0000     -19.117678      -520.2185 
   1   2.0000     -10.225241      -278.2430 
   2   2.0000      -0.995907       -27.1000 
   3   2.0000      -0.666806       -18.1447 
   4   2.0000      -0.502358       -13.6699 
   5   2.0000      -0.428587       -11.6624 
   6   2.0000      -0.419783       -11.4229 
   7   2.0000      -0.323597        -8.8055 
   8   2.0000      -0.261594        -7.1183 
   9   0.0000       0.050971         1.3870 
  10   0.0000       0.093784         2.5520 
  11   0.0000       0.136985         3.7276 
  12   0.0000       0.142423         3.8755 
  13   0.0000       0.206594         5.6217 
  14   0.0000       0.456432        12.4201 
  15   0.0000       0.459108        12.4930 
  16   0.0000       0.480398        13.0723 
  17   0.0000       0.614722        16.7274 
  18   0.0000       0.646331        17.5876 
  19   0.0000       0.650907        17.7121 
  20   0.0000       0.655080        17.8256 
  21   0.0000       0.716425        19.4949 
  22   0.0000       0.956674        26.0324 
  23   0.0000       0.959695        26.1146 
  24   0.0000       1.049961        28.5709 
  25   0.0000       1.217184        33.1213 
  26   0.0000       1.262711        34.3601 
  27   0.0000       1.408052        38.3151 
  28   0.0000       1.490985        40.5718 
  29   0.0000       1.530625        41.6504 
  30   0.0000       1.611305        43.8458 
  31   0.0000       1.722194        46.8633 
  32   0.0000       1.772672        48.2369 
  33   0.0000       1.804862        49.1128 
  34   0.0000       1.851675        50.3866 
  35   0.0000       1.928885        52.4876 
  36   0.0000       2.211824        60.1868 
  37   0.0000       2.254757        61.3551 
  38   0.0000       2.321952        63.1835 
  39   0.0000       2.346271        63.8453 
  40   0.0000       2.627946        71.5100 
  41   0.0000       2.768121        75.3244 
  42   0.0000       2.843071        77.3639 
  43   0.0000       3.019046        82.1524 
  44   0.0000       3.039605        82.7118 
  45   0.0000       3.128039        85.1183 
  46   0.0000       3.330671        90.6322 
  47   0.0000       3.757951       102.2590 

                    ********************************
                    * MULLIKEN POPULATION ANALYSIS *
                    ********************************

-----------------------
MULLIKEN ATOMIC CHARGES
-----------------------
   0 C :    0.151115
   1 O :   -0.332246
   2 H :   -0.000877
   3 H :    0.009295
   4 H :    0.009295
   5 H :    0.163418
Sum of atomic charges:   -0.0000000

--------------------------------
MULLIKEN REDUCED ORBITAL CHARGES
--------------------------------
  0 C s       :     3.006440  s :     3.006440
      pz      :     1.034867  p :     2.786338
      px      :     0.734079
      py      :     1.017392
      dz2     :     0.008490  d :     0.056108
      dxz     :     0.015989
      dyz     :     0.004347
      dx2y2   :     0.015606
      dxy     :     0.011675
  1 O s       :     3.729918  s :     3.729918
      pz      :     1.910206  p :     4.589244
      px      :     1.269425
      py      :     1.409613
      dz2     :     0.002036  d :     0.013084
      dxz     :     0.001660
      dyz     :     0.000895
      dx2y2   :     0.005672
      dxy     :     0.002820
  2 H s       :     0.978266  s :     0.978266
      pz      :     0.005534  p :     0.022612
      px      :     0.004199
      py      :     0.012878
  3 H s       :     0.969387  s :     0.969387
      pz      :     0.010958  p :     0.021318
      px      :     0.003459
      py      :     0.006901
  4 H s       :     0.969387  s :     0.969387
      pz      :     0.010958  p :     0.021318
      px      :     0.003459
      py      :     0.006901
  5 H s       :     0.766978  s :     0.766978
      pz      :     0.020622  p :     0.069603
      px      :     0.017831
      py      :     0.031149


                     *******************************
                     * LOEWDIN POPULATION ANALYSIS *
                     *******************************

----------------------
LOEWDIN ATOMIC CHARGES
----------------------
   0 C :    0.061420
   1 O :   -0.158715
   2 H :    0.005245
   3 H :    0.008202
   4 H :    0.008202
   5 H :    0.075646

-------------------------------
LOEWDIN REDUCED ORBITAL CHARGES
-------------------------------
  0 C s       :     2.846597  s :     2.846597
      pz      :     1.079617  p :     2.966195
      px      :     0.814911
      py      :     1.071667
      dz2     :     0.019233  d :     0.125788
      dxz     :     0.037314
      dyz     :     0.011694
      dx2y2   :     0.033740
      dxy     :     0.023808
  1 O s       :     3.447009  s :     3.447009
      pz      :     1.871535  p :     4.687616
      px      :     1.324331
      py      :     1.491750
      dz2     :     0.003723  d :     0.024090
      dxz     :     0.002667
      dyz     :     0.000325
      dx2y2   :     0.011699
      dxy     :     0.005677
  2 H s       :     0.931945  s :     0.931945
      pz      :     0.012523  p :     0.062811
      px      :     0.013370
      py      :     0.036917
  3 H s       :     0.929922  s :     0.929922
      pz      :     0.031462  p :     0.061875
      px      :     0.012638
      py      :     0.017775
  4 H s       :     0.929922  s :     0.929922
      pz      :     0.031462  p :     0.061875
      px      :     0.012638
      py      :     0.017775
  5 H s       :     0.743765  s :     0.743765
      pz      :     0.055068  p :     0.180589
      px      :     0.038632
      py      :     0.086889


                      *****************************
                      * MAYER POPULATION ANALYSIS *
                      *****************************

  NA   - Mulliken gross atomic population
  ZA   - Total nuclear charge
  QA   - Mulliken gross atomic charge
  VA   - Mayer's total valence
  BVA  - Mayer's bonded valence
  FA   - Mayer's free valence

  ATOM       NA         ZA         QA         VA         BVA        FA
  0 C      5.8489     6.0000     0.1511     3.9783     3.9783    -0.0000
  1 O      8.3322     8.0000    -0.3322     2.0636     2.0636    -0.0000
  2 H      1.0009     1.0000    -0.0009     0.9765     0.9765    -0.0000
  3 H      0.9907     1.0000     0.0093     0.9767     0.9767    -0.0000
  4 H      0.9907     1.0000     0.0093     0.9767     0.9767    -0.0000
  5 H      0.8366     1.0000     0.1634     1.0110     1.0110    -0.0000

  Mayer bond orders larger than 0.1
B(  0-C ,  1-O ) :   1.0399 B(  0-C ,  2-H ) :   0.9797 B(  0-C ,  3-H ) :   0.9728 
B(  0-C ,  4-H ) :   0.9728 B(  1-O ,  5-H ) :   0.9892 

-------
TIMINGS
-------

Total SCF time: 0 days 0 hours 0 min 3 sec 

Total time                  ....       3.176 sec
Sum of individual times     ....       3.047 sec  ( 96.0%)

Fock matrix formation       ....       2.637 sec  ( 83.0%)
  Coulomb formation         ....       1.712 sec  ( 64.9% of F)
  XC integration            ....       0.881 sec  ( 33.4% of F)
    Basis function eval.    ....       0.230 sec  ( 26.2% of XC)
    Density eval.           ....       0.110 sec  ( 12.5% of XC)
    XC-Functional eval.     ....       0.111 sec  ( 12.7% of XC)
    XC-Potential eval.      ....       0.095 sec  ( 10.8% of XC)
Diagonalization             ....       0.003 sec  (  0.1%)
Density matrix formation    ....       0.000 sec  (  0.0%)
Population analysis         ....       0.018 sec  (  0.6%)
Initial guess               ....       0.002 sec  (  0.1%)
Orbital Transformation      ....       0.000 sec  (  0.0%)
Orbital Orthonormalization  ....       0.001 sec  (  0.0%)
DIIS solution               ....       0.000 sec  (  0.0%)
SOSCF solution              ....       0.009 sec  (  0.3%)
Grid generation             ....       0.379 sec  ( 11.9%)

-------------------------   --------------------
FINAL SINGLE POINT ENERGY      -115.563427615737
-------------------------   --------------------

                                *** OPTIMIZATION RUN DONE ***

                            ***************************************
                            *     ORCA property calculations      *
                            ***************************************

                                    ---------------------
                                    Active property flags
                                    ---------------------
   (+) Dipole Moment


------------------------------------------------------------------------------
                       ORCA ELECTRIC PROPERTIES CALCULATION
------------------------------------------------------------------------------

Dipole Moment Calculation                       ... on
Quadrupole Moment Calculation                   ... off
Polarizability Calculation                      ... off
GBWName                                         ... orca3.gbw
Electron density file                           ... orca3.scfp.tmp

-------------
DIPOLE MOMENT
-------------
                                X             Y             Z
Electronic contribution:      1.89303       0.22720      -0.00000
Nuclear contribution   :     -2.17577      -0.85171      -0.00000
                        -----------------------------------------
Total Dipole Moment    :     -0.28274      -0.62451      -0.00000
                        -----------------------------------------
Magnitude (a.u.)       :      0.68553
Magnitude (Debye)      :      1.74249


Timings for individual modules:

Sum of individual times         ...       87.677 sec (=   1.461 min)
GTO integral calculation        ...        8.838 sec (=   0.147 min)  10.1 %
SCF iterations                  ...       50.092 sec (=   0.835 min)  57.1 %
SCF Gradient evaluation         ...       22.272 sec (=   0.371 min)  25.4 %
Geometry relaxation             ...        6.475 sec (=   0.108 min)   7.4 %
                             ****ORCA TERMINATED NORMALLY****
TOTAL RUN TIME: 0 days 0 hours 1 minutes 32 seconds 931 msec
All Done!
