nohup: ignoring input

                                 *****************
                                 * O   R   C   A *
                                 *****************

           --- An Ab Initio, DFT and Semiempirical electronic structure package ---

                  ######################################################
                  #                        -***-                       #
                  #  Department of molecular theory and spectroscopy   #
                  #              Directorship: Frank Neese             #
                  #   Max Planck Institute for Bioinorganic Chemistry  #
                  #                  D-45470 Muelheim/Ruhr             #
                  #                       Germany                      #
                  #                                                    #
                  #                  All rights reserved               #
                  #                        -***-                       #
                  ######################################################


                         Program Version 2.9.1 -  RELEASE  -


 With contributions from (in alphabetic order):
   Ute Becker             : Parallelization
   Dmitry Ganyushin       : Spin-Orbit,Spin-Spin,Magnetic field MRCI
   Andreas Hansen         : Spin unrestricted coupled pair/coupled cluster methods
   Dimitrios Liakos       : Parallel MDCI
   Robert Izsak           : Overlap fitted RIJCOSX
   Christian Kollmar      : KDIIS, orbital optimized coupled pair methods, Brueckner methods
   Simone Kossmann        : Meta GGA functionals, improved MP2 methods
   Taras Petrenko         : TD-DFT gradient, Resonance Raman, ABS, fluorescence, XAS, NRVS
   Christoph Reimann      : Effective Core Potentials
   Michael Roemelt        : Restricted open shell CI
   Christoph Riplinger    : Improved optimizer, TS searches, QM/MM
   Barbara Sandhoefer     : DKH, picture change effects
   Igor Schapiro          : Molecular dynamics
   Kantharuban Sivalingam : CASSCF and multireference perturbation theory
   Boris Wezisla          : Elementary symmetry handling
   Frank Wennmohs         : Technical directorship


 We gratefully acknowledge several collegues who have allowed us to
 interface, adapt or use parts of their codes:
   Stefan Grimme                                : VdW corrections, initial TS optimization
                                                  and many helpful discussions
   Ed Valeev                                    : LibInt (2-el integral package), F12 methods
   Andreas Klamt, Michael Diedenhofen           : otool_cosmo (COSMO solvation model)
   Frank Weinhold                               : gennbo (NPA and NBO analysis)


 Your calculation uses the libint2 library for the computation of 2-el integrals
 For citations please refer to: http://libint.valeyev.net

Your calculation utilizes the basis: Ahlrichs-VDZ
Cite in your paper:
H - Kr: A. Schaefer, H. Horn and R. Ahlrichs, J. Chem. Phys. 97, 2571 (1992).

Your calculation utilizes pol. fcns from basis: Ahlrichs polarization
Cite in your paper:
H - Kr: R. Ahlrichs and coworkers, unpublished

================================================================================
                                        WARNINGS
                       Please study these warnings very carefully!
================================================================================
Now building the actual basis set


INFO   : the flag for use of LIBINT has been found!

================================================================================
                                       INPUT FILE
================================================================================
NAME = orca1.inp
|  1> # 
|  2> # My first ORCA calculation :-) 
|  3> # 
|  4>  
|  5> ! HF SVP 
|  6>  
|  7> * xyz 0 1 
|  8>  C 0.0 0.0 0.0 
|  9>  O 0.0 0.0 1.13 
| 10> **                         ****END OF INPUT****
================================================================================

                       ****************************
                       * Single Point Calculation *
                       ****************************

---------------------------------
CARTESIAN COORDINATES (ANGSTROEM)
---------------------------------
  C      0.000000    0.000000    0.000000
  O      0.000000    0.000000    1.130000

----------------------------
CARTESIAN COORDINATES (A.U.)
----------------------------
  NO LB      ZA    FRAG    MASS        X           Y           Z
   0 C     6.0000    0    12.011    0.000000    0.000000    0.000000
   1 O     8.0000    0    15.999    0.000000    0.000000    2.135391

--------------------------------
INTERNAL COORDINATES (ANGSTROEM)
--------------------------------
 C      0   0   0   0.000000     0.000     0.000
 O      1   0   0   1.130000     0.000     0.000

---------------------------
INTERNAL COORDINATES (A.U.)
---------------------------
 C      0   0   0   0.000000     0.000     0.000
 O      1   0   0   2.135391     0.000     0.000

---------------------
BASIS SET INFORMATION
---------------------
There are 2 groups of distinct atoms

 Group   1 Type C   : 7s4p1d contracted to 3s2p1d pattern {511/31/1}
 Group   2 Type O   : 7s4p1d contracted to 3s2p1d pattern {511/31/1}

Atom   0C    basis set group =>   1
Atom   1O    basis set group =>   2
------------------------------------------------------------------------------
                           ORCA GTO INTEGRAL CALCULATION
------------------------------------------------------------------------------

                         BASIS SET STATISTICS AND STARTUP INFO

 # of primitive gaussian shells          ...   24
 # of primitive gaussian functions       ...   48
 # of contracted shell                   ...   12
 # of contracted basis functions         ...   28
 Highest angular momentum                ...    2
 Maximum contraction depth               ...    5
 Integral package used                   ... LIBINT
 Integral threshhold             Thresh  ...  1.000e-10
 Primitive cut-off               TCut    ...  1.000e-11


                              INTEGRAL EVALUATION

 One electron integrals                  ... done
 Pre-screening matrix                    ... done
 Shell pair data                         ... done (   0.000 sec)

-------------------------------------------------------------------------------
                                 ORCA SCF
-------------------------------------------------------------------------------

------------
SCF SETTINGS
------------
Hamiltonian:
 Ab initio Hamiltonian  Method          .... Hartree-Fock(GTOs)


General Settings:
 Integral files         IntName         .... orca1
 Hartree-Fock type      HFTyp           .... RHF
 Total Charge           Charge          ....    0
 Multiplicity           Mult            ....    1
 Number of Electrons    NEL             ....   14
 Basis Dimension        Dim             ....   28
 Nuclear Repulsion      ENuc            ....     22.4783238924 Eh

Convergence Acceleration:
 DIIS                   CNVDIIS         .... on
   Start iteration      DIISMaxIt       ....    12
   Startup error        DIISStart       ....  0.200000
   # of expansion vecs  DIISMaxEq       ....     5
   Bias factor          DIISBfac        ....   1.050
   Max. coefficient     DIISMaxC        ....  10.000
 Newton-Raphson         CNVNR           .... off
 SOSCF                  CNVSOSCF        .... on
   Start iteration      SOSCFMaxIt      ....   150
   Startup grad/error   SOSCFStart      ....  0.003300
 Level Shifting         CNVShift        .... on
   Level shift para.    LevelShift      ....    0.2500
   Turn off err/grad.   ShiftErr        ....    0.0010
 Zerner damping         CNVZerner       .... off
 Static damping         CNVDamp         .... on
   Fraction old density DampFac         ....    0.7000
   Max. Damping (<1)    DampMax         ....    0.9800
   Min. Damping (>=0)   DampMin         ....    0.0000
   Turn off err/grad.   DampErr         ....    0.1000
 Fernandez-Rico         CNVRico         .... off

SCF Procedure:
 Maximum # iterations   MaxIter         ....   125
 SCF integral mode      SCFMode         .... Direct
   Integral package                     .... LIBINT
 Reset frequeny         DirectResetFreq ....    20
 Integral Threshold     Thresh          ....  1.000e-10 Eh
 Primitive CutOff       TCut            ....  1.000e-11 Eh

Convergence Tolerance:
 Convergence Check Mode ConvCheckMode   .... Total+1el-Energy
 Energy Change          TolE            ....  1.000e-06 Eh
 1-El. energy change                    ....  1.000e-03 Eh
 Orbital Gradient       TolG            ....  5.000e-05
 Orbital Rotation angle TolX            ....  5.000e-05
 DIIS Error             TolErr          ....  1.000e-06


Diagonalization of the overlap matrix:
Smallest eigenvalue                        ... 1.911e-02
Time for diagonalization                   ...    0.104 sec
Time for construction of square roots      ...    0.007 sec
Total time needed                          ...    0.111 sec

-------------------
DFT GRID GENERATION
-------------------

General Integration Accuracy     IntAcc      ...  4.340
Radial Grid Type                 RadialGrid  ... Gauss-Chebyshev
Angular Grid (max. acc.)         AngularGrid ... Lebedev-110
Angular grid pruning method      GridPruning ... 3 (G Style)
Weight generation scheme         WeightScheme... Becke
Basis function cutoff            BFCut       ...    1.0000e-10
Integration weight cutoff        WCut        ...    1.0000e-14
Grids for H and He will be reduced by one unit

# of grid points (after initial pruning)     ...   3372 (   0.0 sec)
# of grid points (after weights+screening)   ...   3345 (   0.0 sec)
nearest neighbour list constructed           ...    0.0 sec
Grid point re-assignment to atoms done       ...    0.0 sec
Grid point division into batches done        ...    0.0 sec
Reduced shell lists constructed in    0.0 sec

Total number of grid points                  ...     3345
Total number of batches                      ...       54
Average number of points per batch           ...       61
Average number of grid points per atom       ...     1672
Average number of shells per batch           ...    10.36 (86.36%)
Average number of basis functions per batch  ...    24.65 (88.05%)
Average number of large shells per batch     ...     9.67 (93.33%)
Average number of large basis fcns per batch ...    23.16 (93.95%)
Maximum spatial batch extension              ...  25.60, 31.36, 17.92 au
Average spatial batch extension              ...   7.11,  6.73,  5.80 au

Time for grid setup =    0.030 sec

------------------------------
INITIAL GUESS: MODEL POTENTIAL
------------------------------
Loading Hartree-Fock densities                     ... done
Calculating cut-offs                               ... done
Setting up the integral package                    ... done
Initializing the effective Hamiltonian             ... done
Starting the Coulomb interaction                   ... done (   0.0 sec)
Reading the grid                                   ... done
Mapping shells                                     ... done
Starting the XC term evaluation                    ... done (   0.7 sec)
Transforming the Hamiltonian                       ... done (   0.0 sec)
Diagonalizing the Hamiltonian                      ... done (   0.0 sec)
Back transforming the eigenvectors                 ... done (   0.0 sec)
Now organizing SCF variables                       ... done
                      ------------------
                      INITIAL GUESS DONE (   0.6 sec)
                      ------------------
--------------
SCF ITERATIONS
--------------
ITER       Energy         Delta-E        Max-DP      RMS-DP      [F,P]     Damp
               ***  Starting incremental Fock matrix formation  ***
  0   -112.6118808681   0.000000000000 0.04029035  0.00317736  0.1780477 0.7000
  1   -112.6241960185  -0.012315150425 0.02774701  0.00213218  0.1093724 0.7000
                               ***Turning on DIIS***
  2   -112.6309857369  -0.006789718408 0.05174182  0.00420925  0.0628860 0.0000
  3   -112.5739033539   0.057082382994 0.02041985  0.00165492  0.0321392 0.0000
  4   -112.6651138634  -0.091210509460 0.00995892  0.00062987  0.0074767 0.0000
                      *** Initiating the SOSCF procedure ***
                           *** Shutting down DIIS ***
                      *** Re-Reading the Fockian *** 
                      *** Removing any level shift *** 
ITER      Energy       Delta-E        Grad      Rot      Max-DP    RMS-DP
  5   -112.64562035   0.0194935141  0.001114  0.001114  0.004041  0.000231
               *** Restarting incremental Fock matrix formation ***
  6   -112.64571034  -0.0000899923  0.000445  0.000492  0.002172  0.000123
  7   -112.64571213  -0.0000017932  0.000170  0.000321  0.001323  0.000079
                 **** Energy Check signals convergence ****
              ***Rediagonalizing the Fockian in SOSCF/NRSCF***

               *****************************************************
               *                     SUCCESS                       *
               *           SCF CONVERGED AFTER   8 CYCLES          *
               *****************************************************


----------------
TOTAL SCF ENERGY
----------------

Total Energy       :         -112.64571246 Eh           -3065.24567 eV

Components:
Nuclear Repulsion  :           22.47832389 Eh             611.66629 eV
Electronic Energy  :         -135.12403635 Eh           -3676.91196 eV

One Electron Energy:         -197.89256546 Eh           -5384.93047 eV
Two Electron Energy:           62.76852911 Eh            1708.01851 eV

Virial components:
Potential Energy   :         -224.95752363 Eh           -6121.40542 eV
Kinetic Energy     :          112.31181117 Eh            3056.15975 eV
Virial Ratio       :            2.00297298


---------------
SCF CONVERGENCE
---------------

  Last Energy change         ...   -3.2355e-07  Tolerance :   1.0000e-06
  Last MAX-Density change    ...    1.0904e-04  Tolerance :   1.0000e-05
  Last RMS-Density change    ...    8.6180e-06  Tolerance :   1.0000e-06
  Last Orbital Gradient      ...    1.2554e-05  Tolerance :   5.0000e-05
  Last Orbital Rotation      ...    5.9662e-05  Tolerance :   5.0000e-05

             **** THE GBW FILE WAS UPDATED (orca1.gbw) ****
             **** DENSITY FILE WAS UPDATED (orca1.scfp.tmp) ****
             **** ENERGY FILE WAS UPDATED (orca1.en.tmp) ****
----------------
ORBITAL ENERGIES
----------------

  NO   OCC          E(Eh)            E(eV) 
   0   2.0000     -20.667180      -562.3826 
   1   2.0000     -11.369622      -309.3831 
   2   2.0000      -1.507995       -41.0346 
   3   2.0000      -0.797723       -21.7071 
   4   2.0000      -0.642243       -17.4763 
   5   2.0000      -0.642243       -17.4763 
   6   2.0000      -0.551183       -14.9984 
   7   0.0000       0.146703         3.9920 
   8   0.0000       0.146703         3.9920 
   9   0.0000       0.354122         9.6361 
  10   0.0000       0.561652        15.2833 
  11   0.0000       0.670058        18.2332 
  12   0.0000       0.670058        18.2332 
  13   0.0000       0.989139        26.9158 
  14   0.0000       1.131596        30.7923 
  15   0.0000       1.238343        33.6970 
  16   0.0000       1.238343        33.6970 
  17   0.0000       1.498402        40.7736 
  18   0.0000       1.883089        51.2414 
  19   0.0000       1.883089        51.2414 
  20   0.0000       1.964621        53.4601 
  21   0.0000       1.964621        53.4601 
  22   0.0000       2.767978        75.3205 
  23   0.0000       2.962032        80.6010 
  24   0.0000       2.962032        80.6010 
  25   0.0000       3.553791        96.7036 
  26   0.0000       3.553791        96.7036 
  27   0.0000       4.004005       108.9545 

                    ********************************
                    * MULLIKEN POPULATION ANALYSIS *
                    ********************************

-----------------------
MULLIKEN ATOMIC CHARGES
-----------------------
   0 C :    0.170696
   1 O :   -0.170696
Sum of atomic charges:   -0.0000000

--------------------------------
MULLIKEN REDUCED ORBITAL CHARGES
--------------------------------
  0 C s       :     3.768563  s :     3.768563
      pz      :     1.034662  p :     1.969660
      px      :     0.467499
      py      :     0.467499
      dz2     :     0.030133  d :     0.091081
      dxz     :     0.030474
      dyz     :     0.030474
      dx2y2   :     0.000000
      dxy     :     0.000000
  1 O s       :     3.764125  s :     3.764125
      pz      :     1.392520  p :     4.381178
      px      :     1.494329
      py      :     1.494329
      dz2     :     0.009997  d :     0.025392
      dxz     :     0.007697
      dyz     :     0.007697
      dx2y2   :     0.000000
      dxy     :     0.000000


                     *******************************
                     * LOEWDIN POPULATION ANALYSIS *
                     *******************************

----------------------
LOEWDIN ATOMIC CHARGES
----------------------
   0 C :    0.035691
   1 O :   -0.035691

-------------------------------
LOEWDIN REDUCED ORBITAL CHARGES
-------------------------------
  0 C s       :     3.551773  s :     3.551773
      pz      :     1.245374  p :     2.250053
      px      :     0.502340
      py      :     0.502340
      dz2     :     0.065487  d :     0.162483
      dxz     :     0.048498
      dyz     :     0.048498
      dx2y2   :     0.000000
      dxy     :     0.000000
  1 O s       :     3.544301  s :     3.544301
      pz      :     1.573612  p :     4.457096
      px      :     1.441742
      py      :     1.441742
      dz2     :     0.019453  d :     0.034294
      dxz     :     0.007421
      dyz     :     0.007421
      dx2y2   :     0.000000
      dxy     :     0.000000


                      *****************************
                      * MAYER POPULATION ANALYSIS *
                      *****************************

  NA   - Mulliken gross atomic population
  ZA   - Total nuclear charge
  QA   - Mulliken gross atomic charge
  VA   - Mayer's total valence
  BVA  - Mayer's bonded valence
  FA   - Mayer's free valence

  ATOM       NA         ZA         QA         VA         BVA        FA
  0 C      5.8293     6.0000     0.1707     2.4219     2.4219    -0.0000
  1 O      8.1707     8.0000    -0.1707     2.4219     2.4219    -0.0000

  Mayer bond orders larger than 0.1
B(  0-C ,  1-O ) :   2.4219 

-------
TIMINGS
-------

Total SCF time: 0 days 0 hours 0 min 2 sec 

Total time                  ....       2.925 sec
Sum of individual times     ....       3.450 sec  (117.9%)

Fock matrix formation       ....       2.706 sec  ( 92.5%)
Diagonalization             ....       0.003 sec  (  0.1%)
Density matrix formation    ....       0.000 sec  (  0.0%)
Population analysis         ....       0.018 sec  (  0.6%)
Initial guess               ....       0.615 sec  ( 21.0%)
Orbital Transformation      ....       0.000 sec  (  0.0%)
Orbital Orthonormalization  ....       0.000 sec  (  0.0%)
DIIS solution               ....       0.072 sec  (  2.5%)
SOSCF solution              ....       0.006 sec  (  0.2%)

-------------------------   --------------------
FINAL SINGLE POINT ENERGY      -112.645712458337
-------------------------   --------------------


                            ***************************************
                            *     ORCA property calculations      *
                            ***************************************

                                    ---------------------
                                    Active property flags
                                    ---------------------
   (+) Dipole Moment


------------------------------------------------------------------------------
                       ORCA ELECTRIC PROPERTIES CALCULATION
------------------------------------------------------------------------------

Dipole Moment Calculation                       ... on
Quadrupole Moment Calculation                   ... off
Polarizability Calculation                      ... off
GBWName                                         ... orca1.gbw
Electron density file                           ... orca1.scfp.tmp

-------------
DIPOLE MOMENT
-------------
                                X             Y             Z
Electronic contribution:     -0.00000      -0.00000      -0.10009
Nuclear contribution   :      0.00000       0.00000       0.00717
                        -----------------------------------------
Total Dipole Moment    :     -0.00000      -0.00000      -0.09292
                        -----------------------------------------
Magnitude (a.u.)       :      0.09292
Magnitude (Debye)      :      0.23619


Timings for individual modules:

Sum of individual times         ...       13.111 sec (=   0.219 min)
GTO integral calculation        ...        4.828 sec (=   0.080 min)  36.8 %
SCF iterations                  ...        8.282 sec (=   0.138 min)  63.2 %
                             ****ORCA TERMINATED NORMALLY****
TOTAL RUN TIME: 0 days 0 hours 0 minutes 17 seconds 514 msec
