nohup: ignoring input

                                 *****************
                                 * O   R   C   A *
                                 *****************

           --- An Ab Initio, DFT and Semiempirical electronic structure package ---

                  ######################################################
                  #                        -***-                       #
                  #  Department of molecular theory and spectroscopy   #
                  #              Directorship: Frank Neese             #
                  #   Max Planck Institute for Bioinorganic Chemistry  #
                  #                  D-45470 Muelheim/Ruhr             #
                  #                       Germany                      #
                  #                                                    #
                  #                  All rights reserved               #
                  #                        -***-                       #
                  ######################################################


                         Program Version 2.9.1 -  RELEASE  -


 With contributions from (in alphabetic order):
   Ute Becker             : Parallelization
   Dmitry Ganyushin       : Spin-Orbit,Spin-Spin,Magnetic field MRCI
   Andreas Hansen         : Spin unrestricted coupled pair/coupled cluster methods
   Dimitrios Liakos       : Parallel MDCI
   Robert Izsak           : Overlap fitted RIJCOSX
   Christian Kollmar      : KDIIS, orbital optimized coupled pair methods, Brueckner methods
   Simone Kossmann        : Meta GGA functionals, improved MP2 methods
   Taras Petrenko         : TD-DFT gradient, Resonance Raman, ABS, fluorescence, XAS, NRVS
   Christoph Reimann      : Effective Core Potentials
   Michael Roemelt        : Restricted open shell CI
   Christoph Riplinger    : Improved optimizer, TS searches, QM/MM
   Barbara Sandhoefer     : DKH, picture change effects
   Igor Schapiro          : Molecular dynamics
   Kantharuban Sivalingam : CASSCF and multireference perturbation theory
   Boris Wezisla          : Elementary symmetry handling
   Frank Wennmohs         : Technical directorship


 We gratefully acknowledge several collegues who have allowed us to
 interface, adapt or use parts of their codes:
   Stefan Grimme                                : VdW corrections, initial TS optimization
                                                  and many helpful discussions
   Ed Valeev                                    : LibInt (2-el integral package), F12 methods
   Andreas Klamt, Michael Diedenhofen           : otool_cosmo (COSMO solvation model)
   Frank Weinhold                               : gennbo (NPA and NBO analysis)


 Your calculation uses the libint2 library for the computation of 2-el integrals
 For citations please refer to: http://libint.valeyev.net

Your calculation utilizes the basis: 6-31G
Cite in your paper:
H - He: W.J. Hehre, R. Ditchfield and J.A. Pople, J. Chem. Phys. 56,
Li - Ne: 2257 (1972).  Note: Li and B come from J.D. Dill and J.A.
         Pople, J. Chem. Phys. 62, 2921 (1975).
Na - Ar: M.M. Francl, W.J. Pietro, W.J. Hehre, J.S. Binkley, M.S. Gordon,
         D.J. DeFrees and J.A. Pople, J. Chem. Phys. 77, 3654 (1982)
K  - Zn: V. Rassolov, J.A. Pople, M. Ratner and T.L. Windus, J. Chem. Phys.
         (accepted, 1998)
Note: He and Ne are unpublished basis sets taken from the Gaussian program

================================================================================
                                        WARNINGS
                       Please study these warnings very carefully!
================================================================================
Now building the actual basis set


INFO   : the flag for use of LIBINT has been found!

================================================================================
                                       INPUT FILE
================================================================================
NAME = orcaMR.inp
|  1> ##
|  2> # test3
|  3> # UB3LYP/G 6-31G(d) sp for CH3S radical
|  4> # geom taken from G03 opt of A' state at UB3LYP/6-31G(d)
|  5> # 6-31G(d) basis using Pople-style d-exponents
|  6> #
|  7> ! UKS  B3LYP/G VeryTightSCF Grid5
|  8> %basis
|  9>  Basis=_6_31G_d
| 10> end
| 11> %output
| 12>  PrintLevel=Normal
| 13>  Print[ P_Basis       ] 2
| 14>  Print[ P_GuessOrb    ] 1
| 15>  Print[ P_MOs         ] 1
| 16>  Print[ P_Density     ] 1
| 17>  Print[ P_SpinDensity ] 1
| 18> end
| 19> * xyz 0 2
| 20> C       0.004228    1.115137    0.000000
| 21> S       0.004228   -0.697639    0.000000
| 22> H      -1.047604    1.433182    0.000000
| 23> H       0.477299    1.519107    0.899333
| 24> H       0.477299    1.519107   -0.899333
| 25> **                         ****END OF INPUT****
================================================================================

                       ****************************
                       * Single Point Calculation *
                       ****************************

---------------------------------
CARTESIAN COORDINATES (ANGSTROEM)
---------------------------------
  C      0.004228    1.115137    0.000000
  S      0.004228   -0.697639    0.000000
  H     -1.047604    1.433182    0.000000
  H      0.477299    1.519107    0.899333
  H      0.477299    1.519107   -0.899333

----------------------------
CARTESIAN COORDINATES (A.U.)
----------------------------
  NO LB      ZA    FRAG    MASS        X           Y           Z
   0 C     6.0000    0    12.011    0.007990    2.107304    0.000000
   1 S    16.0000    0    32.060    0.007990   -1.318347    0.000000
   2 H     1.0000    0     1.008   -1.979685    2.708321    0.000000
   3 H     1.0000    0     1.008    0.901964    2.870696    1.699493
   4 H     1.0000    0     1.008    0.901964    2.870696   -1.699493

--------------------------------
INTERNAL COORDINATES (ANGSTROEM)
--------------------------------
 C      0   0   0   0.000000     0.000     0.000
 S      1   0   0   1.812776     0.000     0.000
 H      1   2   0   1.098864   106.824     0.000
 H      1   2   3   1.093521   111.680   117.745
 H      1   2   3   1.093521   111.680   242.255

---------------------------
INTERNAL COORDINATES (A.U.)
---------------------------
 C      0   0   0   0.000000     0.000     0.000
 S      1   0   0   3.425650     0.000     0.000
 H      1   2   0   2.076553   106.824     0.000
 H      1   2   3   2.066455   111.680   117.745
 H      1   2   3   2.066455   111.680   242.255

---------------------
BASIS SET INFORMATION
---------------------
There are 3 groups of distinct atoms

 Group   1 Type C   : 10s4p1d contracted to 3s2p1d pattern {631/31/1}
 Group   2 Type S   : 16s10p1d contracted to 4s3p1d pattern {6631/631/1}
 Group   3 Type H   : 4s contracted to 2s pattern {31}

Atom   0C    basis set group =>   1
Atom   1S    basis set group =>   2
Atom   2H    basis set group =>   3
Atom   3H    basis set group =>   3
Atom   4H    basis set group =>   3

-------------------------
BASIS SET IN INPUT FORMAT
-------------------------

 # Basis set for element : H 
 NewGTO H 
 S 3 
   1      18.7311370000      0.0334945995
   2       2.8253937000      0.2347269467
   3       0.6401217000      0.8137573184
 S 1 
   1       0.1612778000      1.0000000000
  end;

 # Basis set for element : C 
 NewGTO C 
 S 6 
   1    3047.5249000000      0.0018347002
   2     457.3695100000      0.0140373012
   3     103.9486900000      0.0688426061
   4      29.2101550000      0.2321844206
   5       9.2866630000      0.4679413416
   6       3.1639270000      0.3623120322
 S 3 
   1       7.8682724000     -0.1193324086
   2       1.8812885000     -0.1608542116
   3       0.5442493000      1.1434564826
 P 3 
   1       7.8682724000      0.0689990956
   2       1.8812885000      0.3164239798
   3       0.5442493000      0.7443082524
 S 1 
   1       0.1687144000      1.0000000000
 P 1 
   1       0.1687144000      1.0000000000
 D 1 
   1       0.8000000000      1.0000000000
  end;

 # Basis set for element : S 
 NewGTO S 
 S 6 
   1   21917.1000000000      0.0018690012
   2    3301.4900000000      0.0142300092
   3     754.1460000000      0.0696960451
   4     212.7110000000      0.2384871542
   5      67.9896000000      0.4833073125
   6      23.0515000000      0.3380742186
 S 6 
   1     423.7350000000     -0.0023767005
   2     100.7100000000     -0.0316930066
   3      32.1599000000     -0.1133170236
   4      11.8079000000      0.0560900117
   5       4.6311000000      0.5922551234
   6       1.8702500000      0.4550060948
 P 6 
   1     423.7350000000      0.0040610003
   2     100.7100000000      0.0306810024
   3      32.1599000000      0.1304520103
   4      11.8079000000      0.3272050259
   5       4.6311000000      0.4528510358
   6       1.8702500000      0.2560420203
 S 3 
   1       2.6158400000     -0.2503731142
   2       0.9221670000      0.0669567631
   3       0.3412870000      1.0545062691
 P 3 
   1       2.6158400000     -0.0145109929
   2       0.9221670000      0.3102628472
   3       0.3412870000      0.7544826285
 S 1 
   1       0.1171670000      1.0000000000
 P 1 
   1       0.1171670000      1.0000000000
 D 1 
   1       0.6500000000      1.0000000000
  end;

------------------------------------------------------------------------------
                           ORCA GTO INTEGRAL CALCULATION
------------------------------------------------------------------------------

                         BASIS SET STATISTICS AND STARTUP INFO

 # of primitive gaussian shells          ...   54
 # of primitive gaussian functions       ...   90
 # of contracted shell                   ...   20
 # of contracted basis functions         ...   38
 Highest angular momentum                ...    2
 Maximum contraction depth               ...    6
 Integral package used                   ... LIBINT
 Integral threshhold             Thresh  ...  1.000e-12
 Primitive cut-off               TCut    ...  1.000e-14


                              INTEGRAL EVALUATION

 One electron integrals                  ... done
 Pre-screening matrix                    ... done
 Shell pair data                         ... done (   0.000 sec)

-------------------------------------------------------------------------------
                                 ORCA SCF
-------------------------------------------------------------------------------

------------
SCF SETTINGS
------------
Hamiltonian:
 Density Functional     Method          .... DFT(GTOs)
 Exchange Functional    Exchange        .... B88
   X-Alpha parameter    XAlpha          ....  0.666667
   Becke's b parameter  XBeta           ....  0.004200
 Correlation Functional Correlation     .... LYP
 LDA part of GGA corr.  LDAOpt          .... VWN-3
 Gradients option       PostSCFGGA      .... off
 Hybrid DFT is turned on
   Fraction HF Exchange ScalHFX         ....  0.200000
   Scaling of DF-GGA-X  ScalDFX         ....  0.720000
   Scaling of DF-GGA-C  ScalDFC         ....  0.810000
   Scaling of DF-LDA-C  ScalLDAC        ....  1.000000
   Perturbative correction              ....  0.000000


General Settings:
 Integral files         IntName         .... orcaMR
 Hartree-Fock type      HFTyp           .... UHF
 Total Charge           Charge          ....    0
 Multiplicity           Mult            ....    2
 Number of Electrons    NEL             ....   25
 Basis Dimension        Dim             ....   38
 Nuclear Repulsion      ENuc            ....     48.1188395268 Eh

Convergence Acceleration:
 DIIS                   CNVDIIS         .... on
   Start iteration      DIISMaxIt       ....    12
   Startup error        DIISStart       ....  0.200000
   # of expansion vecs  DIISMaxEq       ....     5
   Bias factor          DIISBfac        ....   1.050
   Max. coefficient     DIISMaxC        ....  10.000
 Newton-Raphson         CNVNR           .... off
 SOSCF                  CNVSOSCF        .... off
 Level Shifting         CNVShift        .... on
   Level shift para.    LevelShift      ....    0.2500
   Turn off err/grad.   ShiftErr        ....    0.0010
 Zerner damping         CNVZerner       .... off
 Static damping         CNVDamp         .... on
   Fraction old density DampFac         ....    0.7000
   Max. Damping (<1)    DampMax         ....    0.9800
   Min. Damping (>=0)   DampMin         ....    0.0000
   Turn off err/grad.   DampErr         ....    0.1000
 Fernandez-Rico         CNVRico         .... off

SCF Procedure:
 Maximum # iterations   MaxIter         ....   125
 SCF integral mode      SCFMode         .... Direct
   Integral package                     .... LIBINT
 Reset frequeny         DirectResetFreq ....    20
 Integral Threshold     Thresh          ....  1.000e-12 Eh
 Primitive CutOff       TCut            ....  1.000e-14 Eh

Convergence Tolerance:
 Convergence Check Mode ConvCheckMode   .... Total+1el-Energy
 Energy Change          TolE            ....  1.000e-09 Eh
 1-El. energy change                    ....  1.000e-06 Eh
 DIIS Error             TolErr          ....  1.000e-08


Diagonalization of the overlap matrix:
Smallest eigenvalue                        ... 2.029e-02
Time for diagonalization                   ...    0.002 sec
Time for construction of square roots      ...    0.008 sec
Total time needed                          ...    0.009 sec

-------------------
DFT GRID GENERATION
-------------------

General Integration Accuracy     IntAcc      ...  5.010
Radial Grid Type                 RadialGrid  ... Gauss-Chebyshev
Angular Grid (max. acc.)         AngularGrid ... Lebedev-434
Angular grid pruning method      GridPruning ... 3 (G Style)
Weight generation scheme         WeightScheme... Becke
Basis function cutoff            BFCut       ...    1.0000e-12
Integration weight cutoff        WCut        ...    1.0000e-14
Grids for H and He will be reduced by one unit

# of grid points (after initial pruning)     ...  42514 (   0.0 sec)
# of grid points (after weights+screening)   ...  41403 (   0.1 sec)
nearest neighbour list constructed           ...    0.0 sec
Grid point re-assignment to atoms done       ...    0.0 sec
Grid point division into batches done        ...    0.4 sec
Reduced shell lists constructed in    0.7 sec

Total number of grid points                  ...    41403
Total number of batches                      ...      650
Average number of points per batch           ...       63
Average number of grid points per atom       ...     8281
Average number of shells per batch           ...    15.55 (77.74%)
Average number of basis functions per batch  ...    30.23 (79.56%)
Average number of large shells per batch     ...    14.15 (91.03%)
Average number of large basis fcns per batch ...    27.59 (91.25%)
Maximum spatial batch extension              ...  19.21, 22.38, 18.11 au
Average spatial batch extension              ...   2.76,  2.69,  2.73 au

Time for grid setup =    0.768 sec

------------------------------
INITIAL GUESS: MODEL POTENTIAL
------------------------------
Loading Hartree-Fock densities                     ... done
Calculating cut-offs                               ... done
Setting up the integral package                    ... done
Initializing the effective Hamiltonian             ... done
Starting the Coulomb interaction                   ... done (   0.1 sec)
Reading the grid                                   ... done
Mapping shells                                     ... done
Starting the XC term evaluation                    ... done (   1.4 sec)
  promolecular density results
     # of electrons  =     24.998531292
     EX              =    -30.999157871
     EC              =     -0.925871437
     EX+EC           =    -31.925029308
Transforming the Hamiltonian                       ... done (   0.0 sec)
Diagonalizing the Hamiltonian                      ... done (   0.0 sec)
Back transforming the eigenvectors                 ... done (   0.0 sec)
Now organizing SCF variables                       ... done
                      ------------------
                      INITIAL GUESS DONE (   1.7 sec)
                      ------------------
----------------------
INITIAL GUESS ORBITALS
----------------------
                      0         1         2         3         4         5   
                 -88.16216 -10.10708  -7.73376  -5.76030  -5.75850  -5.75850
                   1.00000   1.00000   1.00000   1.00000   1.00000   1.00000
                  --------  --------  --------  --------  --------  --------
  0C   1s        -0.000040  0.995112 -0.000216 -0.000292 -0.000010 -0.000000
  0C   2s        -0.000224  0.039136 -0.001033 -0.001701 -0.000112 -0.000000
  0C   1pz        0.000000  0.000000  0.000000 -0.000000  0.000000 -0.000063
  0C   1px        0.000010 -0.000120  0.000061  0.000047 -0.000086 -0.000000
  0C   1py       -0.000141  0.000242 -0.001027 -0.001401  0.000015  0.000000
  0C   3s         0.000620 -0.032448  0.003393  0.007129  0.000368  0.000000
  0C   2pz       -0.000000 -0.000000 -0.000000  0.000000  0.000000 -0.000697
  0C   2px       -0.000071  0.000460 -0.000450 -0.000452 -0.000630 -0.000000
  0C   2py        0.000125  0.000487  0.001125 -0.002055 -0.000010 -0.000000
  0C   1dz2      -0.000151  0.000209 -0.000768 -0.000944 -0.000077 -0.000000
  0C   1dxz      -0.000000 -0.000000 -0.000000 -0.000000  0.000000 -0.000080
  0C   1dyz      -0.000000 -0.000000 -0.000000 -0.000000 -0.000000  0.000469
  0C   1dx2y2    -0.000248  0.000263 -0.001256 -0.001556  0.000068  0.000000
  0C   1dxy      -0.000003  0.000035 -0.000015 -0.000011  0.000472  0.000000
  1S   1s         0.996646 -0.000008  0.280485 -0.000639 -0.000001  0.000000
  1S   2s         0.012408  0.000051 -1.025963  0.002378 -0.000001 -0.000000
  1S   1pz        0.000000  0.000000 -0.000000  0.000000 -0.000000  0.990348
  1S   1px       -0.000001  0.000007  0.000000  0.003370  0.990341  0.000000
  1S   1py        0.000055  0.000018 -0.001535 -0.989807  0.003382  0.000000
  1S   3s        -0.004287  0.000083 -0.041466 -0.001345 -0.000045  0.000000
  1S   2pz       -0.000000  0.000000 -0.000000  0.000000 -0.000000  0.032181
  1S   2px        0.000005 -0.000040  0.000032  0.000141  0.032186  0.000000
  1S   2py       -0.000240  0.000728 -0.001792 -0.034427  0.000075  0.000000
  1S   4s         0.002260  0.004937  0.016728 -0.001820  0.000020 -0.000000
  1S   3pz       -0.000000 -0.000000  0.000000 -0.000000  0.000000 -0.009494
  1S   3px       -0.000000  0.000058 -0.000004 -0.000024 -0.009530 -0.000000
  1S   3py        0.000288  0.003251  0.002168  0.008652 -0.000010 -0.000000
  1S   1dz2       0.000032  0.000058  0.000258  0.000795 -0.000016 -0.000000
  1S   1dxz       0.000000 -0.000000 -0.000000  0.000000  0.000000 -0.000018
  1S   1dyz       0.000000  0.000000  0.000000  0.000000 -0.000000  0.000312
  1S   1dx2y2     0.000058  0.000090  0.000458  0.001387  0.000011  0.000000
  1S   1dxy       0.000003 -0.000002  0.000019  0.000024  0.000303  0.000000
  2H   1s         0.000029 -0.000759  0.000106 -0.000380  0.000074  0.000000
  2H   2s        -0.000414  0.005971 -0.002660 -0.002272 -0.001878 -0.000000
  3H   1s         0.000040 -0.000884  0.000175 -0.000251 -0.000089 -0.000130
  3H   2s        -0.000339  0.005816 -0.002184 -0.001838  0.000769  0.001576
  4H   1s         0.000040 -0.000884  0.000175 -0.000251 -0.000089  0.000130
  4H   2s        -0.000339  0.005816 -0.002184 -0.001838  0.000769 -0.001576
                      6         7         8         9        10        11   
                  -0.78347  -0.63088  -0.48327  -0.47750  -0.39281  -0.25312
                   1.00000   1.00000   1.00000   1.00000   1.00000   1.00000
                  --------  --------  --------  --------  --------  --------
  0C   1s        -0.182455  0.089977 -0.000000 -0.002137  0.027866 -0.000000
  0C   2s         0.382299 -0.198631 -0.000000  0.005376 -0.061932  0.000000
  0C   1pz        0.000000  0.000000 -0.505430 -0.000000 -0.000000  0.096986
  0C   1px       -0.008478  0.002741 -0.000000  0.503464 -0.030121 -0.000000
  0C   1py       -0.018856 -0.224476 -0.000000  0.027993  0.427137 -0.000000
  0C   3s         0.338679 -0.189308  0.000000  0.001813 -0.119067 -0.000000
  0C   2pz        0.000000  0.000000 -0.213126 -0.000000 -0.000000  0.000655
  0C   2px       -0.004382  0.001464 -0.000000  0.211788 -0.016033 -0.000000
  0C   2py       -0.008745 -0.071759 -0.000000  0.012563  0.218330 -0.000000
  0C   1dz2       0.000703 -0.008397 -0.000000  0.019082  0.004557 -0.000000
  0C   1dxz       0.000000  0.000000 -0.018839 -0.000000 -0.000000  0.006977
  0C   1dyz       0.000000  0.000000 -0.016084 -0.000000 -0.000000  0.026292
  0C   1dx2y2     0.000226 -0.012656 -0.000000 -0.013414  0.008474 -0.000000
  0C   1dxy       0.000929 -0.000474 -0.000000  0.012682 -0.000655  0.000000
  1S   1s         0.038264  0.067486  0.000000  0.002346  0.026731 -0.000000
  1S   2s        -0.173184 -0.303980 -0.000000 -0.010555 -0.123666  0.000000
  1S   1pz        0.000000 -0.000000  0.046237  0.000000  0.000000  0.274264
  1S   1px        0.000478 -0.000240  0.000000 -0.049031  0.005320  0.000000
  1S   1py       -0.052581 -0.007949 -0.000000  0.006202  0.198262 -0.000000
  1S   3s         0.350781  0.647820 -0.000000  0.023554  0.259584 -0.000000
  1S   2pz       -0.000000  0.000000 -0.114259 -0.000000 -0.000000 -0.730835
  1S   2px       -0.001020  0.000590 -0.000000  0.121535 -0.013630 -0.000000
  1S   2py        0.119982  0.023564  0.000000 -0.014800 -0.505799  0.000000
  1S   4s         0.075322  0.233328  0.000000  0.015580  0.255832 -0.000000
  1S   3pz       -0.000000 -0.000000 -0.029063 -0.000000 -0.000000 -0.390065
  1S   3px       -0.000335 -0.000154  0.000000  0.032381 -0.004190  0.000000
  1S   3py       -0.006703 -0.004222 -0.000000 -0.001799 -0.112501  0.000000
  1S   1dz2      -0.014782 -0.002999  0.000000  0.002322  0.024253 -0.000000
  1S   1dxz       0.000000 -0.000000 -0.001291  0.000000 -0.000000  0.001179
  1S   1dyz      -0.000000 -0.000000 -0.025793  0.000000 -0.000000 -0.007130
  1S   1dx2y2    -0.025476 -0.005187  0.000000  0.000478  0.042135 -0.000000
  1S   1dxy      -0.000477  0.000171 -0.000000  0.027058 -0.002051  0.000000
  2H   1s         0.115019 -0.099913  0.000000 -0.270349  0.067708  0.000000
  2H   2s         0.007368 -0.026577 -0.000000 -0.145919  0.049095 -0.000000
  3H   1s         0.112051 -0.107289 -0.235456  0.134889  0.060586  0.087438
  3H   2s         0.008222 -0.028973 -0.120513  0.072374  0.042659  0.113179
  4H   1s         0.112051 -0.107289  0.235456  0.134889  0.060586 -0.087438
  4H   2s         0.008222 -0.028973  0.120513  0.072374  0.042659 -0.113179
                     12        13        14        15        16        17   
                  -0.25173  -0.03649   0.03915   0.06221   0.06653   0.26032
                   1.00000   0.00000   0.00000   0.00000   0.00000   0.00000
                  --------  --------  --------  --------  --------  --------
  0C   1s        -0.000544  0.110373  0.107843 -0.010192 -0.000000 -0.017039
  0C   2s         0.000957 -0.210848 -0.173861  0.021551  0.000000  0.087124
  0C   1pz        0.000000 -0.000000 -0.000000 -0.000000 -0.462174  0.000000
  0C   1px       -0.105621 -0.019822  0.063130  0.455655 -0.000000 -0.031975
  0C   1py        0.002451  0.380974 -0.339956  0.067013  0.000000  0.211303
  0C   3s         0.005671 -1.159761 -1.849974  0.159572  0.000000 -0.022151
  0C   2pz        0.000000  0.000000 -0.000000 -0.000000 -1.212326 -0.000000
  0C   2px       -0.014617 -0.033191  0.161608  1.153208 -0.000000 -0.008373
  0C   2py        0.005970  0.616896 -0.631569  0.161923  0.000000  0.225135
  0C   1dz2      -0.006813 -0.009503  0.012936 -0.027043  0.000000  0.017408
  0C   1dxz       0.000000 -0.000000  0.000000  0.000000  0.027849 -0.000000
  0C   1dyz       0.000000 -0.000000  0.000000  0.000000  0.019445 -0.000000
  0C   1dx2y2     0.005309 -0.018480  0.027427  0.013617 -0.000000  0.030131
  0C   1dxy      -0.025528 -0.000420 -0.000646 -0.015925  0.000000  0.000212
  1S   1s        -0.000064  0.021503 -0.019666  0.001484  0.000000 -0.068816
  1S   2s         0.000254 -0.101580  0.053201 -0.005813 -0.000000  0.089887
  1S   1pz        0.000000 -0.000000 -0.000000 -0.000000 -0.007251 -0.000000
  1S   1px       -0.274104 -0.003066 -0.000965  0.005683 -0.000000  0.008996
  1S   1py        0.004447 -0.186333  0.056878 -0.006873 -0.000000 -0.078500
  1S   3s        -0.000820  0.226648 -0.354463  0.020645  0.000000 -1.619951
  1S   2pz       -0.000000  0.000000  0.000000  0.000000  0.006507  0.000000
  1S   2px        0.730678  0.008659  0.003815 -0.003580  0.000000 -0.035499
  1S   2py       -0.011783  0.538494 -0.181321  0.022167  0.000000  0.272303
  1S   4s         0.001230  0.623127  0.146016  0.053868  0.000000  2.026832
  1S   3pz       -0.000000 -0.000000  0.000000  0.000000  0.252017 -0.000000
  1S   3px        0.392876  0.010244 -0.019282 -0.224925  0.000000  0.032381
  1S   3py       -0.005478  0.900229 -0.096399  0.068443  0.000000  0.121999
  1S   1dz2      -0.001006  0.061946 -0.005152 -0.020264  0.000000  0.068516
  1S   1dxz      -0.000000 -0.000000  0.000000  0.000000  0.024948 -0.000000
  1S   1dyz      -0.000000  0.000000 -0.000000 -0.000000 -0.078069  0.000000
  1S   1dx2y2     0.000897  0.106443 -0.002657  0.023305 -0.000000  0.116010
  1S   1dxy       0.005964 -0.003306  0.005617  0.070128 -0.000000 -0.000223
  2H   1s         0.103052  0.006064  0.105774  0.188650 -0.000000 -0.034308
  2H   2s         0.126351  0.126676  1.162713  1.431631 -0.000000 -0.301590
  3H   1s        -0.049624  0.022365  0.071698 -0.109957  0.164702 -0.038755
  3H   2s        -0.063469  0.173451  0.941261 -0.884399  1.383086 -0.253703
  4H   1s        -0.049624  0.022365  0.071698 -0.109957 -0.164702 -0.038755
  4H   2s        -0.063469  0.173451  0.941261 -0.884399 -1.383086 -0.253703
                     18        19        20        21        22        23   
                   0.29628   0.31521   0.31601   0.41276   0.41371   0.47929
                   0.00000   0.00000   0.00000   0.00000   0.00000   0.00000
                  --------  --------  --------  --------  --------  --------
  0C   1s        -0.029454  0.000000 -0.003796  0.001456  0.000000 -0.028746
  0C   2s         0.220779 -0.000000  0.035062 -0.025263 -0.000000  0.139792
  0C   1pz        0.000000 -0.024176 -0.000000 -0.000000  0.716154  0.000000
  0C   1px       -0.036467  0.000000 -0.019981 -0.726377 -0.000000  0.046757
  0C   1py        0.061738 -0.000000  0.018763 -0.047005 -0.000000 -0.818446
  0C   3s        -0.462675  0.000000 -0.046104  0.028903  0.000000 -0.069386
  0C   2pz        0.000000 -0.015536 -0.000000  0.000000 -1.441617 -0.000000
  0C   2px        0.011696  0.000000 -0.019558  1.406608  0.000000 -0.107174
  0C   2py        0.003707  0.000000 -0.021480  0.139780  0.000000  2.128364
  0C   1dz2       0.048025 -0.000000  0.026954 -0.077168 -0.000000 -0.041028
  0C   1dxz       0.000000  0.022193  0.000000 -0.000000  0.076535 -0.000000
  0C   1dyz      -0.000000  0.005502  0.000000 -0.000000  0.088658 -0.000000
  0C   1dx2y2     0.089138 -0.000000 -0.002528  0.036725  0.000000 -0.071589
  0C   1dxy      -0.000211 -0.000000  0.001949 -0.074325 -0.000000 -0.000774
  1S   1s        -0.008238  0.000000 -0.002956  0.001542  0.000000 -0.015955
  1S   2s        -0.014190 -0.000000  0.000982 -0.001161 -0.000000  0.014356
  1S   1pz       -0.000000 -0.287989 -0.000000  0.000000 -0.003206  0.000000
  1S   1px        0.029284  0.000000 -0.285884  0.001222  0.000000 -0.004272
  1S   1py        0.260546 -0.000000  0.023517 -0.007823 -0.000000  0.075911
  1S   3s        -0.286926  0.000000 -0.080649  0.040880  0.000000 -0.382503
  1S   2pz        0.000000  1.168102  0.000000  0.000000 -0.012195 -0.000000
  1S   2px       -0.116885 -0.000000  1.160924  0.018225  0.000000  0.017849
  1S   2py       -1.089558  0.000000 -0.102164  0.042313  0.000000 -0.196689
  1S   4s         0.578213 -0.000000  0.111836  0.013510 -0.000000  1.631821
  1S   3pz       -0.000000 -1.279938 -0.000000 -0.000000  0.407710  0.000000
  1S   3px        0.112696  0.000000 -1.278341 -0.400751 -0.000000 -0.002423
  1S   3py        1.541701 -0.000000  0.152536 -0.011059 -0.000000  1.201305
  1S   1dz2       0.077925 -0.000000  0.019559 -0.033261 -0.000000 -0.075895
  1S   1dxz      -0.000000  0.007802  0.000000 -0.000000  0.026170  0.000000
  1S   1dyz       0.000000  0.027720  0.000000  0.000000 -0.375094 -0.000000
  1S   1dx2y2     0.132357 -0.000000  0.013384  0.000422  0.000000 -0.138157
  1S   1dxy       0.003374 -0.000000  0.033406  0.350200  0.000000 -0.019131
  2H   1s         0.074362  0.000000 -0.086513  0.354642  0.000000 -0.270908
  2H   2s        -0.297860  0.000000 -0.209660  0.189812  0.000000 -0.452206
  3H   1s         0.035359  0.089355  0.060022 -0.204025  0.321334 -0.249607
  3H   2s        -0.227317  0.132477  0.042599 -0.093632  0.203213 -0.451008
  4H   1s         0.035359 -0.089355  0.060022 -0.204025 -0.321334 -0.249607
  4H   2s        -0.227317 -0.132477  0.042599 -0.093632 -0.203213 -0.451008
                     24        25        26        27        28        29   
                   0.65717   0.66214   0.72039   0.72600   0.73179   0.75395
                   0.00000   0.00000   0.00000   0.00000   0.00000   0.00000
                  --------  --------  --------  --------  --------  --------
  0C   1s        -0.000592 -0.000000 -0.009868  0.000000  0.032137  0.000963
  0C   2s        -0.027587  0.000000  0.169389 -0.000000 -0.452052  0.074112
  0C   1pz       -0.000000 -0.343989  0.000000  0.777816 -0.000000 -0.000000
  0C   1px        0.410939 -0.000000 -0.643571  0.000000 -0.263204 -0.183352
  0C   1py        0.002499 -0.000000  0.221352 -0.000000 -0.636540  0.050471
  0C   3s         0.072204 -0.000000 -0.459662  0.000000  1.158674 -0.220319
  0C   2pz        0.000000  0.629583 -0.000000 -1.617287  0.000000  0.000000
  0C   2px       -0.747780  0.000000  1.418807 -0.000000  0.555234 -0.176781
  0C   2py       -0.018703  0.000000 -0.237338  0.000000  0.796745 -0.058057
  0C   1dz2      -0.015334  0.000000  0.019875  0.000000  0.106083  0.178583
  0C   1dxz       0.000000  0.004931 -0.000000 -0.090546  0.000000  0.000000
  0C   1dyz       0.000000  0.076948 -0.000000 -0.149447  0.000000  0.000000
  0C   1dx2y2     0.016271  0.000000 -0.076281  0.000000  0.090200 -0.129767
  0C   1dxy      -0.087573  0.000000  0.130506 -0.000000  0.054883 -0.066792
  1S   1s        -0.000005 -0.000000 -0.000173  0.000000  0.001848 -0.001277
  1S   2s        -0.000839  0.000000  0.003296 -0.000000 -0.005398  0.001275
  1S   1pz        0.000000  0.001110 -0.000000 -0.011936  0.000000  0.000000
  1S   1px        0.000010 -0.000000  0.004454 -0.000000  0.005578  0.024534
  1S   1py       -0.001916  0.000000  0.011675 -0.000000 -0.029395  0.007321
  1S   3s        -0.003619 -0.000000  0.006992  0.000000  0.034457 -0.031701
  1S   2pz       -0.000000 -0.014859  0.000000  0.070886 -0.000000 -0.000000
  1S   2px        0.012328  0.000000 -0.034214  0.000000 -0.031034 -0.121600
  1S   2py        0.005297 -0.000000 -0.054928  0.000000  0.152050 -0.033609
  1S   4s        -0.005138  0.000000 -0.107004  0.000000  0.255790  0.034503
  1S   3pz       -0.000000 -0.044839  0.000000  0.096000 -0.000000 -0.000000
  1S   3px        0.052730 -0.000000 -0.122176  0.000000 -0.024157  0.291410
  1S   3py       -0.013334  0.000000 -0.001923 -0.000000  0.010198  0.053865
  1S   1dz2       0.743520 -0.000000  0.336646 -0.000000  0.374061 -0.020660
  1S   1dxz      -0.000000 -0.901966 -0.000000 -0.426896  0.000000  0.000000
  1S   1dyz      -0.000000 -0.199710  0.000000  0.323070 -0.000000 -0.000000
  1S   1dx2y2    -0.408666  0.000000 -0.412083  0.000000  0.297895 -0.081556
  1S   1dxy       0.255012 -0.000000 -0.433102  0.000000 -0.089504  0.759871
  2H   1s         0.343509 -0.000000 -0.597437  0.000000  0.256123 -0.651787
  2H   2s        -0.819630  0.000000  1.666622 -0.000000 -0.072692  0.700702
  3H   1s        -0.162437  0.241713  0.026562 -0.518362  0.604873  0.279120
  3H   2s         0.377317 -0.576563 -0.408965  1.492183 -1.053504 -0.239449
  4H   1s        -0.162437 -0.241713  0.026562  0.518362  0.604873  0.279120
  4H   2s         0.377317  0.576563 -0.408965 -1.492183 -1.053504 -0.239449
                     30        31        32        33        34        35   
                   0.77352   0.87753   1.10055   1.51286   1.52595   1.97021
                   0.00000   0.00000   0.00000   0.00000   0.00000   0.00000
                  --------  --------  --------  --------  --------  --------
  0C   1s         0.000000 -0.049015  0.117463 -0.000000 -0.005387  0.017832
  0C   2s         0.000000  1.380840  1.927188 -0.000000 -0.058647  0.314001
  0C   1pz        0.040332  0.000000 -0.000000  0.066124  0.000000  0.000000
  0C   1px        0.000000 -0.027733  0.008466  0.000000  0.064978  0.007905
  0C   1py       -0.000000 -0.094306 -0.114051  0.000000  0.008781 -0.000955
  0C   3s        -0.000000 -2.300171 -4.886924  0.000000  0.161108 -0.707453
  0C   2pz        0.570243 -0.000000  0.000000 -0.334677 -0.000000 -0.000000
  0C   2px       -0.000000  0.063198  0.086359 -0.000000 -0.311844  0.034561
  0C   2py        0.000000 -0.489549  0.607559 -0.000000 -0.042429  0.852950
  0C   1dz2      -0.000000  0.029485 -0.081837 -0.000000 -0.434494  0.625906
  0C   1dxz      -0.209437  0.000000 -0.000000 -0.621815 -0.000000  0.000000
  0C   1dyz       0.056080 -0.000000  0.000000  0.768183  0.000000  0.000000
  0C   1dx2y2     0.000000  0.038809 -0.086359 -0.000000  0.232976  0.897621
  0C   1dxy       0.000000 -0.004250  0.018740 -0.000000  0.856270  0.076271
  1S   1s         0.000000  0.014734 -0.002210  0.000000 -0.000341  0.013364
  1S   2s         0.000000  0.005280 -0.045561 -0.000000  0.002816 -0.066258
  1S   1pz       -0.020868  0.000000  0.000000 -0.015796  0.000000 -0.000000
  1S   1px       -0.000000  0.001737  0.002274  0.000000 -0.017274 -0.001321
  1S   1py       -0.000000 -0.032455 -0.051057  0.000000  0.004418 -0.109732
  1S   3s         0.000000  0.454260 -0.202030  0.000000 -0.000693  0.159116
  1S   2pz        0.106177 -0.000000 -0.000000  0.036170 -0.000000  0.000000
  1S   2px        0.000000 -0.009252 -0.010702 -0.000000  0.039649  0.004181
  1S   2py        0.000000  0.235114  0.292711 -0.000000 -0.021664  0.474366
  1S   4s         0.000000 -0.598513  1.620368 -0.000000 -0.060691  0.662322
  1S   3pz       -0.333050  0.000000  0.000000  0.138853  0.000000 -0.000000
  1S   3px       -0.000000  0.017910  0.002487  0.000000  0.140857 -0.006751
  1S   3py       -0.000000 -0.521918  1.069208 -0.000000 -0.036984  0.354729
  1S   1dz2       0.000000  0.350424 -0.247974  0.000000  0.027688 -0.245172
  1S   1dxz       0.049244  0.000000  0.000000  0.025942 -0.000000 -0.000000
  1S   1dyz      -0.831043  0.000000 -0.000000  0.284687  0.000000  0.000000
  1S   1dx2y2     0.000000  0.594301 -0.440601  0.000000  0.010147 -0.418371
  1S   1dxy      -0.000000  0.014481 -0.010679 -0.000000  0.302181  0.007647
  2H   1s         0.000000 -0.314645  0.541608 -0.000000 -0.068058 -0.145698
  2H   2s        -0.000000  0.967814  0.529494 -0.000000 -0.140998 -0.018518
  3H   1s        -0.477741 -0.276899  0.467355  0.041932 -0.003283 -0.234800
  3H   2s         0.223935  0.892678  0.541408  0.133155  0.053950 -0.027647
  4H   1s         0.477741 -0.276899  0.467355 -0.041932 -0.003283 -0.234800
  4H   2s        -0.223935  0.892678  0.541408 -0.133155  0.053950 -0.027647
                     36        37   
                   2.02864   2.03491
                   0.00000   0.00000
                  --------  --------
  0C   1s        -0.000000  0.002061
  0C   2s         0.000000  0.012014
  0C   1pz       -0.116490  0.000000
  0C   1px       -0.000000 -0.111270
  0C   1py        0.000000 -0.005617
  0C   3s         0.000000 -0.045366
  0C   2pz       -0.557640  0.000000
  0C   2px       -0.000000 -0.518810
  0C   2py        0.000000  0.016665
  0C   1dz2      -0.000000 -0.776903
  0C   1dxz      -0.869319  0.000000
  0C   1dyz      -0.716970  0.000000
  0C   1dx2y2     0.000000  0.588858
  0C   1dxy      -0.000000 -0.568965
  1S   1s         0.000000  0.000846
  1S   2s        -0.000000 -0.005656
  1S   1pz        0.008618 -0.000000
  1S   1px        0.000000  0.005272
  1S   1py       -0.000000 -0.008021
  1S   3s         0.000000  0.004416
  1S   2pz       -0.027291  0.000000
  1S   2px       -0.000000 -0.016240
  1S   2py        0.000000  0.029839
  1S   4s         0.000000  0.036527
  1S   3pz        0.122219 -0.000000
  1S   3px        0.000000  0.116099
  1S   3py        0.000000  0.022067
  1S   1dz2      -0.000000  0.006449
  1S   1dxz       0.028794 -0.000000
  1S   1dyz      -0.013597  0.000000
  1S   1dx2y2    -0.000000 -0.052647
  1S   1dxy       0.000000  0.008854
  2H   1s        -0.000000 -0.801940
  2H   2s         0.000000  0.082085
  3H   1s         0.694501  0.395349
  3H   2s        -0.044317 -0.044935
  4H   1s        -0.694501  0.395349
  4H   2s         0.044317 -0.044935
--------------
SCF ITERATIONS
--------------
ITER       Energy         Delta-E        Max-DP      RMS-DP      [F,P]     Damp
               ***  Starting incremental Fock matrix formation  ***
  0   -438.0056659799   0.000000000000 0.02802106  0.00190598  0.1601960 0.7000
  1   -438.0293633928  -0.023697412989 0.01909152  0.00139089  0.0802631 0.7000
                               ***Turning on DIIS***
  2   -438.0385908971  -0.009227504251 0.03179871  0.00239008  0.0277435 0.0000
  3   -438.0518167872  -0.013225890144 0.01260885  0.00092429  0.0446700 0.0000
  4   -438.0558373220  -0.004020534793 0.00587144  0.00033130  0.0083507 0.0000
  5   -438.0560328557  -0.000195533656 0.00136317  0.00009146  0.0021750 0.0000
  6   -438.0560507471  -0.000017891415 0.00133714  0.00005869  0.0005287 0.0000
  7   -438.0560538699  -0.000003122767 0.00026223  0.00001278  0.0001122 0.0000
  8   -438.0560539756  -0.000000105723 0.00008099  0.00000437  0.0000593 0.0000
  9   -438.0560539923  -0.000000016725 0.00001256  0.00000072  0.0000044 0.0000
 10   -438.0560539931  -0.000000000796 0.00000489  0.00000027  0.0000010 0.0000
 11   -438.0560539932  -0.000000000111 0.00000235  0.00000011  0.0000005 0.0000
                 **** Energy Check signals convergence ****

               *****************************************************
               *                     SUCCESS                       *
               *           SCF CONVERGED AFTER  12 CYCLES          *
               *****************************************************


----------------
TOTAL SCF ENERGY
----------------

Total Energy       :         -438.05605399 Eh          -11920.11124 eV

Components:
Nuclear Repulsion  :           48.11883953 Eh            1309.38019 eV
Electronic Energy  :         -486.17489352 Eh          -13229.49143 eV

One Electron Energy:         -698.31454682 Eh          -19002.10487 eV
Two Electron Energy:          212.13965330 Eh            5772.61344 eV

Virial components:
Potential Energy   :         -875.08641563 Eh          -23812.31196 eV
Kinetic Energy     :          437.03036163 Eh           11892.20073 eV
Virial Ratio       :            2.00234696


DFT components:
N(Alpha)           :       13.000000366969 electrons
N(Beta)            :       12.000000082256 electrons
N(Total)           :       25.000000449225 electrons
E(X)               :      -24.791909493781 Eh       
E(C)               :       -1.182252897515 Eh       
E(XC)              :      -25.974162391296 Eh       

---------------
SCF CONVERGENCE
---------------

  Last Energy change         ...   -2.2112e-11  Tolerance :   1.0000e-09
  Last MAX-Density change    ...    1.3635e-06  Tolerance :   1.0000e-08
  Last RMS-Density change    ...    7.3490e-08  Tolerance :   1.0000e-09
  Last DIIS Error            ...    2.0348e-07  Tolerance :   1.0000e-08

             **** THE GBW FILE WAS UPDATED (orcaMR.gbw) ****
             **** DENSITY FILE WAS UPDATED (orcaMR.scfp.tmp) ****
             **** ENERGY FILE WAS UPDATED (orcaMR.en.tmp) ****
----------------------
UHF SPIN CONTAMINATION
----------------------

Warning: in a DFT calculation there is little theoretical justification to 
         calculate <S**2> as in Hartree-Fock theory. We will do it anyways
         but you should keep in mind that the values have only limited relevance

Expectation value of <S**2>     :     0.752487
Ideal value S*(S+1) for S=0.5   :     0.750000
Deviation                       :     0.002487

----------------
ORBITAL ENERGIES
----------------
                 SPIN UP ORBITALS
  NO   OCC          E(Eh)            E(eV) 
   0   1.0000     -88.873287     -2418.3651 
   1   1.0000     -10.214581      -277.9529 
   2   1.0000      -7.948645      -216.2936 
   3   1.0000      -5.918777      -161.0581 
   4   1.0000      -5.909713      -160.8115 
   5   1.0000      -5.900229      -160.5534 
   6   1.0000      -0.782038       -21.2803 
   7   1.0000      -0.632989       -17.2245 
   8   1.0000      -0.443839       -12.0775 
   9   1.0000      -0.438253       -11.9255 
  10   1.0000      -0.370227       -10.0744 
  11   1.0000      -0.284282        -7.7357 
  12   1.0000      -0.242931        -6.6105 
  13   0.0000       0.044635         1.2146 
  14   0.0000       0.115808         3.1513 
  15   0.0000       0.138400         3.7661 
  16   0.0000       0.146200         3.9783 
  17   0.0000       0.319780         8.7017 
  18   0.0000       0.357610         9.7311 
  19   0.0000       0.366590         9.9754 
  20   0.0000       0.383559        10.4372 
  21   0.0000       0.506042        13.7701 
  22   0.0000       0.520799        14.1717 
  23   0.0000       0.580640        15.8000 
  24   0.0000       0.745459        20.2850 
  25   0.0000       0.749860        20.4047 
  26   0.0000       0.817375        22.2419 
  27   0.0000       0.849490        23.1158 
  28   0.0000       0.863409        23.4946 
  29   0.0000       0.876493        23.8506 
  30   0.0000       0.897946        24.4344 
  31   0.0000       0.998891        27.1812 
  32   0.0000       1.205217        32.7956 
  33   0.0000       1.686435        45.8902 
  34   0.0000       1.694124        46.0995 
  35   0.0000       2.141786        58.2810 
  36   0.0000       2.211345        60.1738 
  37   0.0000       2.213600        60.2351 

                 SPIN DOWN ORBITALS
  NO   OCC          E(Eh)            E(eV) 
   0   1.0000     -88.867893     -2418.2183 
   1   1.0000     -10.214803      -277.9589 
   2   1.0000      -7.943284      -216.1477 
   3   1.0000      -5.906471      -160.7233 
   4   1.0000      -5.901348      -160.5838 
   5   1.0000      -5.897025      -160.4662 
   6   1.0000      -0.766550       -20.8589 
   7   1.0000      -0.605751       -16.4833 
   8   1.0000      -0.436659       -11.8821 
   9   1.0000      -0.431875       -11.7519 
  10   1.0000      -0.359372        -9.7790 
  11   1.0000      -0.229651        -6.2491 
  12   0.0000      -0.151201        -4.1144 
  13   0.0000       0.054693         1.4883 
  14   0.0000       0.119160         3.2425 
  15   0.0000       0.142174         3.8687 
  16   0.0000       0.146767         3.9937 
  17   0.0000       0.333123         9.0647 
  18   0.0000       0.372226        10.1288 
  19   0.0000       0.389403        10.5962 
  20   0.0000       0.395795        10.7701 
  21   0.0000       0.520579        14.1657 
  22   0.0000       0.522955        14.2303 
  23   0.0000       0.583461        15.8768 
  24   0.0000       0.794330        21.6148 
  25   0.0000       0.796721        21.6799 
  26   0.0000       0.849712        23.1218 
  27   0.0000       0.856777        23.3141 
  28   0.0000       0.879698        23.9378 
  29   0.0000       0.886847        24.1323 
  30   0.0000       0.902408        24.5558 
  31   0.0000       1.008980        27.4557 
  32   0.0000       1.208855        32.8946 
  33   0.0000       1.686140        45.8822 
  34   0.0000       1.697731        46.1976 
  35   0.0000       2.143027        58.3147 
  36   0.0000       2.211502        60.1780 
  37   0.0000       2.216081        60.3026 
------------------
MOLECULAR ORBITALS
------------------
                      0         1         2         3         4         5   
                 -88.87329 -10.21458  -7.94864  -5.91878  -5.90971  -5.90023
                   1.00000   1.00000   1.00000   1.00000   1.00000   1.00000
                  --------  --------  --------  --------  --------  --------
  0C   1s        -0.000039  0.995287 -0.000157  0.000017 -0.000230  0.000000
  0C   2s        -0.000222  0.036578 -0.000904  0.000146 -0.001495  0.000000
  0C   1pz        0.000000  0.000000 -0.000000  0.000000  0.000000 -0.000039
  0C   1px        0.000010 -0.000124  0.000045  0.000060  0.000042 -0.000000
  0C   1py       -0.000139 -0.000381 -0.000832  0.000022 -0.001217 -0.000000
  0C   3s         0.000611 -0.029056  0.002900 -0.000524  0.006338 -0.000000
  0C   2pz       -0.000000 -0.000000  0.000000 -0.000000 -0.000000 -0.000709
  0C   2px       -0.000070  0.000417 -0.000363  0.000698 -0.000381  0.000000
  0C   2py        0.000125  0.000824  0.000970  0.000070 -0.001862  0.000000
  0C   1dz2      -0.000149  0.000162 -0.000649  0.000101 -0.000817  0.000000
  0C   1dxz      -0.000000  0.000000 -0.000000 -0.000000 -0.000000 -0.000076
  0C   1dyz      -0.000000  0.000000 -0.000000 -0.000000 -0.000000  0.000420
  0C   1dx2y2    -0.000245  0.000237 -0.001048 -0.000027 -0.001356  0.000000
  0C   1dxy      -0.000003  0.000025 -0.000012 -0.000452 -0.000021  0.000000
  1S   1s         0.996622 -0.000009  0.280876  0.000016 -0.001924 -0.000000
  1S   2s         0.012496  0.000058 -1.026939 -0.000055  0.007227  0.000000
  1S   1pz        0.000000  0.000000  0.000000  0.000000  0.000000  0.991318
  1S   1px       -0.000000  0.000006 -0.000117 -0.990645 -0.023841  0.000000
  1S   1py        0.000099  0.000016 -0.006290  0.023814 -0.990322  0.000000
  1S   3s        -0.004228  0.000083 -0.037015  0.000065 -0.000971 -0.000000
  1S   2pz       -0.000000  0.000000 -0.000000  0.000000  0.000000  0.028942
  1S   2px        0.000005 -0.000035  0.000017 -0.030208 -0.000687  0.000000
  1S   2py       -0.000253  0.000661 -0.001730  0.000814 -0.031629  0.000000
  1S   4s         0.002228  0.004575  0.014374  0.000041 -0.001800  0.000000
  1S   3pz        0.000000 -0.000000  0.000000 -0.000000 -0.000000 -0.008132
  1S   3px       -0.000000  0.000051  0.000000  0.008608  0.000210 -0.000000
  1S   3py        0.000295  0.003006  0.001928 -0.000198  0.007611  0.000000
  1S   1dz2       0.000031  0.000075  0.000747 -0.000003  0.000799 -0.000000
  1S   1dxz       0.000000 -0.000000  0.000000  0.000000  0.000000 -0.000007
  1S   1dyz       0.000000  0.000000 -0.000000  0.000000  0.000000  0.000557
  1S   1dx2y2     0.000055  0.000121 -0.000042 -0.000062  0.001412 -0.000000
  1S   1dxy       0.000003 -0.000002  0.000032 -0.000541  0.000002 -0.000000
  2H   1s         0.000029 -0.000592  0.000079 -0.000036 -0.000345  0.000000
  2H   2s        -0.000410  0.005261 -0.002249  0.001805 -0.001940  0.000000
  3H   1s         0.000040 -0.000685  0.000151  0.000078 -0.000233 -0.000095
  3H   2s        -0.000336  0.005099 -0.001891 -0.000675 -0.001616  0.001391
  4H   1s         0.000040 -0.000685  0.000151  0.000078 -0.000233  0.000095
  4H   2s        -0.000336  0.005099 -0.001891 -0.000675 -0.001616 -0.001391
                      6         7         8         9        10        11   
                  -0.78204  -0.63299  -0.44384  -0.43825  -0.37023  -0.28428
                   1.00000   1.00000   1.00000   1.00000   1.00000   1.00000
                  --------  --------  --------  --------  --------  --------
  0C   1s        -0.154209  0.124079 -0.006232 -0.000000  0.019385  0.000740
  0C   2s         0.296146 -0.244372  0.012871 -0.000000 -0.035538 -0.002029
  0C   1pz       -0.000000  0.000000 -0.000000  0.445659  0.000000 -0.000000
  0C   1px       -0.008479  0.010199  0.431420  0.000000 -0.018895 -0.146539
  0C   1py       -0.053735 -0.160411  0.023944  0.000000  0.376460  0.000213
  0C   3s         0.281850 -0.263780  0.017090  0.000000 -0.124358 -0.000616
  0C   2pz        0.000000  0.000000 -0.000000  0.219065 -0.000000 -0.000000
  0C   2px       -0.001606  0.004485  0.213123  0.000000 -0.011300 -0.058364
  0C   2py       -0.016297 -0.049644  0.014342 -0.000000  0.225956  0.003483
  0C   1dz2      -0.002671 -0.007150  0.018478  0.000000  0.008734 -0.008100
  0C   1dxz       0.000000  0.000000 -0.000000  0.018366  0.000000  0.000000
  0C   1dyz       0.000000  0.000000 -0.000000  0.011859 -0.000000  0.000000
  0C   1dx2y2    -0.002920 -0.012397 -0.012548 -0.000000  0.014425  0.006351
  0C   1dxy       0.000592 -0.000330  0.007299  0.000000 -0.000179 -0.021197
  1S   1s         0.051421  0.058986  0.000982  0.000000  0.019444 -0.000153
  1S   2s        -0.234295 -0.268323 -0.004444  0.000000 -0.092518  0.000629
  1S   1pz       -0.000000  0.000000  0.000000 -0.060429 -0.000000  0.000000
  1S   1px        0.000580 -0.001112 -0.080889 -0.000000  0.006114 -0.265989
  1S   1py       -0.054303  0.015930  0.004047 -0.000000  0.208085  0.005195
  1S   3s         0.475135  0.565616  0.010043  0.000000  0.182624 -0.001842
  1S   2pz        0.000000 -0.000000 -0.000000  0.151346  0.000000 -0.000000
  1S   2px       -0.001351  0.002776  0.206973  0.000000 -0.015842  0.713234
  1S   2py        0.126844 -0.033729 -0.009604  0.000000 -0.533600 -0.014031
  1S   4s         0.141823  0.253927  0.009803 -0.000000  0.246402  0.000453
  1S   3pz        0.000000  0.000000 -0.000000  0.052873  0.000000  0.000000
  1S   3px       -0.000505  0.000255  0.075582  0.000000 -0.006320  0.390780
  1S   3py        0.001345 -0.001434 -0.000968 -0.000000 -0.143841 -0.006438
  1S   1dz2      -0.024781 -0.010339  0.001613  0.000000  0.018313 -0.001267
  1S   1dxz      -0.000000 -0.000000 -0.000000  0.001386 -0.000000  0.000000
  1S   1dyz       0.000000 -0.000000 -0.000000  0.027234  0.000000 -0.000000
  1S   1dx2y2    -0.015057  0.018686 -0.000035 -0.000000  0.051378  0.001558
  1S   1dxy      -0.000899  0.000078  0.030141  0.000000 -0.002187  0.002807
  2H   1s         0.095910 -0.123945 -0.255774 -0.000000  0.072521  0.126610
  2H   2s         0.018423 -0.049039 -0.190668 -0.000000  0.072933  0.158694
  3H   1s         0.088055 -0.119453  0.127686  0.226094  0.068998 -0.059252
  3H   2s         0.012139 -0.047406  0.091826  0.164091  0.066804 -0.075902
  4H   1s         0.088055 -0.119453  0.127686 -0.226094  0.068998 -0.059252
  4H   2s         0.012139 -0.047406  0.091826 -0.164091  0.066804 -0.075902
                     12        13        14        15        16        17   
                  -0.24293   0.04464   0.11581   0.13840   0.14620   0.31978
                   1.00000   0.00000   0.00000   0.00000   0.00000   0.00000
                  --------  --------  --------  --------  --------  --------
  0C   1s         0.000000  0.131644 -0.084802  0.023709  0.000000 -0.020828
  0C   2s         0.000000 -0.178540  0.063474 -0.025457 -0.000000  0.084668
  0C   1pz       -0.112736  0.000000 -0.000000  0.000000 -0.392249  0.000000
  0C   1px       -0.000000 -0.003454 -0.110945 -0.372891 -0.000000 -0.030190
  0C   1py       -0.000000  0.282512  0.345344 -0.104509 -0.000000  0.186836
  0C   3s        -0.000000 -1.644693  1.708736 -0.438819 -0.000000  0.047949
  0C   2pz       -0.021541  0.000000 -0.000000  0.000000 -1.385674 -0.000000
  0C   2px        0.000000  0.010460 -0.375159 -1.282170 -0.000000 -0.025654
  0C   2py        0.000000  0.594775  0.830758 -0.298044 -0.000000  0.385466
  0C   1dz2       0.000000 -0.002411 -0.007914  0.016226  0.000000  0.018564
  0C   1dxz      -0.007285  0.000000  0.000000 -0.000000  0.016666 -0.000000
  0C   1dyz      -0.023453  0.000000  0.000000 -0.000000  0.013811  0.000000
  0C   1dx2y2     0.000000 -0.006480 -0.020357 -0.005211 -0.000000  0.032942
  0C   1dxy       0.000000 -0.000365  0.002059  0.013362  0.000000  0.000564
  1S   1s        -0.000000  0.016610  0.024825 -0.004571 -0.000000 -0.069636
  1S   2s         0.000000 -0.088940 -0.073565  0.014308  0.000000  0.088831
  1S   1pz       -0.263257  0.000000 -0.000000 -0.000000 -0.000322  0.000000
  1S   1px       -0.000000 -0.002530  0.001329  0.003101  0.000000  0.015569
  1S   1py       -0.000000 -0.142814 -0.068632  0.011987  0.000000 -0.064781
  1S   3s        -0.000000  0.141149  0.427397 -0.076769 -0.000000 -1.650994
  1S   2pz        0.697782 -0.000000  0.000000  0.000000 -0.018876 -0.000000
  1S   2px        0.000000  0.007184 -0.008030 -0.027773 -0.000000 -0.062557
  1S   2py        0.000000  0.401715  0.207632 -0.036691 -0.000000  0.215197
  1S   4s         0.000000  0.744931 -0.028594 -0.052194 -0.000000  2.153704
  1S   3pz        0.419777  0.000000  0.000000 -0.000000  0.301774  0.000000
  1S   3px        0.000000  0.005004  0.065141  0.270241  0.000000  0.064942
  1S   3py        0.000000  1.007970  0.327154 -0.120965 -0.000000  0.299438
  1S   1dz2      -0.000000  0.049480  0.016834  0.020747  0.000000  0.071216
  1S   1dxz      -0.001408 -0.000000  0.000000 -0.000000  0.027559 -0.000000
  1S   1dyz       0.007313  0.000000 -0.000000  0.000000 -0.078586 -0.000000
  1S   1dx2y2    -0.000000  0.118821  0.034170 -0.030717 -0.000000  0.107280
  1S   1dxy      -0.000000 -0.002112 -0.018077 -0.078414 -0.000000 -0.001775
  2H   1s        -0.000000  0.012155 -0.072354 -0.117130 -0.000000 -0.018310
  2H   2s         0.000000  0.359318 -1.414409 -1.359548 -0.000000 -0.409223
  3H   1s        -0.094743  0.021018 -0.019887  0.074025  0.102781 -0.024716
  3H   2s        -0.138877  0.337890 -0.816087  1.091398  1.503445 -0.355952
  4H   1s         0.094743  0.021018 -0.019887  0.074025 -0.102781 -0.024716
  4H   2s         0.138877  0.337890 -0.816087  1.091398 -1.503445 -0.355952
                     18        19        20        21        22        23   
                   0.35761   0.36659   0.38356   0.50604   0.52080   0.58064
                   0.00000   0.00000   0.00000   0.00000   0.00000   0.00000
                  --------  --------  --------  --------  --------  --------
  0C   1s        -0.004934  0.033056 -0.000000 -0.002704 -0.000000  0.028917
  0C   2s         0.027085 -0.208486  0.000000  0.032550  0.000000 -0.130768
  0C   1pz        0.000000 -0.000000 -0.043405  0.000000  0.711588  0.000000
  0C   1px        0.030910  0.042785 -0.000000  0.710296 -0.000000 -0.035801
  0C   1py       -0.007641 -0.031261  0.000000  0.038101 -0.000000  0.841809
  0C   3s        -0.080767  0.391391 -0.000000 -0.036344 -0.000000  0.058729
  0C   2pz        0.000000  0.000000 -0.029317 -0.000000 -1.358311 -0.000000
  0C   2px        0.035940  0.009115  0.000000 -1.264370  0.000000  0.076986
  0C   2py       -0.012353  0.061710 -0.000000 -0.108753  0.000000 -2.063321
  0C   1dz2      -0.007079 -0.047341  0.000000  0.070810 -0.000000  0.039763
  0C   1dxz      -0.000000  0.000000  0.016504  0.000000  0.075271  0.000000
  0C   1dyz      -0.000000 -0.000000 -0.002232  0.000000  0.084841  0.000000
  0C   1dx2y2     0.023040 -0.078035  0.000000 -0.036388 -0.000000  0.068732
  0C   1dxy       0.003481  0.000412 -0.000000  0.074355 -0.000000  0.002119
  1S   1s         0.002314  0.007456 -0.000000 -0.001571  0.000000  0.014769
  1S   2s        -0.006198  0.010147  0.000000  0.001371 -0.000000 -0.015037
  1S   1pz        0.000000 -0.000000 -0.292455 -0.000000 -0.010392  0.000000
  1S   1px        0.280473  0.054774  0.000000 -0.008620 -0.000000  0.002868
  1S   1py        0.057757 -0.271335  0.000000  0.009398  0.000000 -0.083545
  1S   3s         0.043087  0.249915 -0.000000 -0.040724  0.000000  0.347914
  1S   2pz       -0.000000  0.000000  1.185598  0.000000  0.018615 -0.000000
  1S   2px       -1.144128 -0.225486 -0.000000  0.014715  0.000000 -0.012554
  1S   2py       -0.234511  1.125120 -0.000000 -0.046613  0.000000  0.226254
  1S   4s        -0.024304 -0.461427  0.000000  0.001543  0.000000 -1.540367
  1S   3pz        0.000000 -0.000000 -1.278503  0.000000  0.358303  0.000000
  1S   3px        1.263383  0.263241  0.000000  0.334609 -0.000000  0.003433
  1S   3py        0.275337 -1.465723  0.000000  0.026570  0.000000 -1.167784
  1S   1dz2      -0.003095 -0.054284  0.000000  0.024404 -0.000000  0.085700
  1S   1dxz      -0.000000  0.000000  0.009492  0.000000  0.027107  0.000000
  1S   1dyz       0.000000  0.000000  0.035338 -0.000000 -0.361790 -0.000000
  1S   1dx2y2     0.019672 -0.104771  0.000000 -0.001974 -0.000000  0.207157
  1S   1dxy      -0.037015 -0.012775  0.000000 -0.372701  0.000000  0.012136
  2H   1s         0.082583 -0.064095  0.000000 -0.415349 -0.000000  0.269979
  2H   2s         0.207380  0.362159 -0.000000 -0.048180 -0.000000  0.414737
  3H   1s        -0.029215 -0.058554  0.063688  0.224049  0.371016  0.256139
  3H   2s        -0.131857  0.179148  0.196761  0.021783  0.113160  0.433690
  4H   1s        -0.029215 -0.058554 -0.063688  0.224049 -0.371016  0.256139
  4H   2s        -0.131857  0.179148 -0.196761  0.021783 -0.113160  0.433690
                     24        25        26        27        28        29   
                   0.74546   0.74986   0.81738   0.84949   0.86341   0.87649
                   0.00000   0.00000   0.00000   0.00000   0.00000   0.00000
                  --------  --------  --------  --------  --------  --------
  0C   1s        -0.003846 -0.000000  0.002909  0.000000  0.011568  0.029962
  0C   2s         0.038114  0.000000 -0.035391 -0.000000 -0.246930 -0.370569
  0C   1pz        0.000000 -0.203401 -0.000000  0.839120  0.000000 -0.000000
  0C   1px       -0.294077 -0.000000  0.617432 -0.000000  0.473199 -0.363655
  0C   1py       -0.094048 -0.000000 -0.131600 -0.000000 -0.346052 -0.637436
  0C   3s        -0.000353 -0.000000  0.135401  0.000000  0.645588  0.898596
  0C   2pz       -0.000000  0.295749  0.000000 -1.748168 -0.000000  0.000000
  0C   2px        0.485474  0.000000 -1.496968 -0.000000 -0.392465  0.515209
  0C   2py        0.080155  0.000000  0.088471  0.000000  0.357738  0.689688
  0C   1dz2      -0.003412 -0.000000  0.040858  0.000000 -0.122437  0.151902
  0C   1dxz      -0.000000 -0.010930  0.000000 -0.036209 -0.000000 -0.000000
  0C   1dyz      -0.000000  0.046611  0.000000 -0.168863 -0.000000  0.000000
  0C   1dx2y2     0.009222  0.000000  0.006761 -0.000000  0.161304  0.046487
  0C   1dxy       0.062488  0.000000 -0.148745 -0.000000 -0.007966  0.043440
  1S   1s        -0.002117 -0.000000 -0.001227 -0.000000  0.001353  0.001937
  1S   2s         0.012644  0.000000  0.003281  0.000000 -0.000349 -0.001360
  1S   1pz       -0.000000 -0.002870  0.000000 -0.002026  0.000000 -0.000000
  1S   1px       -0.004267  0.000000  0.007471  0.000000 -0.017198  0.009643
  1S   1py       -0.001018 -0.000000 -0.002767 -0.000000 -0.015647 -0.019511
  1S   3s        -0.010656  0.000000 -0.021783 -0.000000  0.038723  0.052788
  1S   2pz        0.000000  0.006171 -0.000000  0.025042 -0.000000  0.000000
  1S   2px        0.011382 -0.000000 -0.024709 -0.000000  0.094558 -0.053999
  1S   2py        0.017654  0.000000  0.017758 -0.000000  0.083198  0.116120
  1S   4s         0.001006  0.000000  0.058270 -0.000000  0.062912  0.184946
  1S   3pz        0.000000 -0.033034 -0.000000  0.201086  0.000000 -0.000000
  1S   3px       -0.067711  0.000000  0.261392  0.000000 -0.173448  0.044550
  1S   3py       -0.031992  0.000000  0.001881 -0.000000 -0.051095 -0.001209
  1S   1dz2      -0.764441 -0.000000 -0.232014  0.000000  0.113539  0.366375
  1S   1dxz       0.000000 -0.966261  0.000000 -0.253425 -0.000000  0.000000
  1S   1dyz       0.000000 -0.139447 -0.000000  0.564579  0.000000 -0.000000
  1S   1dx2y2     0.519364  0.000000  0.266651  0.000000  0.274525  0.289177
  1S   1dxy      -0.233678 -0.000000  0.751860  0.000000 -0.445068  0.116639
  2H   1s        -0.176747 -0.000000  0.219158 -0.000000  0.920920 -0.002040
  2H   2s         0.413762  0.000000 -1.165160 -0.000000 -1.329687  0.231091
  3H   1s         0.098785  0.134315  0.010488 -0.399232 -0.130039  0.639049
  3H   2s        -0.220349 -0.250102  0.420581  1.359228  0.153840 -0.979240
  4H   1s         0.098785 -0.134315  0.010488  0.399232 -0.130039  0.639049
  4H   2s        -0.220349  0.250102  0.420581 -1.359228  0.153840 -0.979240
                     30        31        32        33        34        35   
                   0.89795   0.99889   1.20522   1.68643   1.69412   2.14179
                   0.00000   0.00000   0.00000   0.00000   0.00000   0.00000
                  --------  --------  --------  --------  --------  --------
  0C   1s         0.000000  0.058737 -0.116451 -0.000000 -0.004607  0.016075
  0C   2s         0.000000 -1.464029 -1.899993 -0.000000 -0.048442  0.305232
  0C   1pz       -0.307629 -0.000000 -0.000000 -0.067973 -0.000000  0.000000
  0C   1px       -0.000000  0.032181 -0.010475 -0.000000  0.068721  0.005422
  0C   1py       -0.000000  0.067990  0.121924  0.000000  0.008487  0.000167
  0C   3s        -0.000000  2.375963  4.794173  0.000000  0.134206 -0.670479
  0C   2pz       -0.094405  0.000000  0.000000  0.319988  0.000000 -0.000000
  0C   2px        0.000000 -0.075045 -0.088217  0.000000 -0.292075  0.018503
  0C   2py        0.000000  0.456090 -0.618804  0.000000 -0.035247  0.821036
  0C   1dz2       0.000000 -0.017632  0.071823  0.000000 -0.436548  0.606123
  0C   1dxz       0.213027  0.000000  0.000000  0.626934  0.000000 -0.000000
  0C   1dyz      -0.006894  0.000000  0.000000 -0.766949 -0.000000  0.000000
  0C   1dx2y2     0.000000 -0.024117  0.077620 -0.000000  0.236039  0.916498
  0C   1dxy       0.000000  0.004335 -0.015584 -0.000000  0.859301  0.058013
  1S   1s         0.000000 -0.012206  0.001458 -0.000000 -0.000273  0.013447
  1S   2s        -0.000000 -0.008713  0.046757  0.000000  0.002234 -0.065447
  1S   1pz        0.020130  0.000000  0.000000  0.015856  0.000000 -0.000000
  1S   1px        0.000000 -0.001559 -0.002295  0.000000 -0.016957 -0.001143
  1S   1py       -0.000000  0.024200  0.053157  0.000000  0.003771 -0.108379
  1S   3s         0.000000 -0.396663  0.185100 -0.000000 -0.000707  0.165427
  1S   2pz       -0.107714 -0.000000 -0.000000 -0.037729 -0.000000  0.000000
  1S   2px       -0.000000  0.008299  0.010626 -0.000000  0.040188  0.003692
  1S   2py        0.000000 -0.200509 -0.301699 -0.000000 -0.018499  0.469014
  1S   4s         0.000000  0.499933 -1.595252 -0.000000 -0.049821  0.627861
  1S   3pz        0.268672 -0.000000  0.000000 -0.130338 -0.000000 -0.000000
  1S   3px        0.000000 -0.013269 -0.001052 -0.000000  0.130329 -0.003409
  1S   3py       -0.000000  0.435696 -1.048765  0.000000 -0.030095  0.332880
  1S   1dz2       0.000000 -0.376898  0.261691 -0.000000  0.025297 -0.240761
  1S   1dxz       0.014485  0.000000  0.000000 -0.024876 -0.000000 -0.000000
  1S   1dyz       0.715343 -0.000000 -0.000000 -0.274026 -0.000000  0.000000
  1S   1dx2y2     0.000000 -0.527638  0.437408  0.000000  0.007288 -0.406925
  1S   1dxy      -0.000000 -0.005547  0.013065 -0.000000  0.282458  0.007419
  2H   1s         0.000000  0.340892 -0.561263 -0.000000 -0.058119 -0.170236
  2H   2s         0.000000 -0.961498 -0.498547 -0.000000 -0.133750 -0.015287
  3H   1s         0.611817  0.314644 -0.485575 -0.040041 -0.005381 -0.224288
  3H   2s        -0.584244 -0.885828 -0.507254 -0.127596  0.053870 -0.027498
  4H   1s        -0.611817  0.314644 -0.485575  0.040041 -0.005381 -0.224288
  4H   2s         0.584244 -0.885828 -0.507254  0.127596  0.053870 -0.027498
                     36        37   
                   2.21135   2.21360
                   0.00000   0.00000
                  --------  --------
  0C   1s         0.000000 -0.002021
  0C   2s        -0.000000 -0.002118
  0C   1pz       -0.129054 -0.000000
  0C   1px       -0.000000  0.121958
  0C   1py       -0.000000  0.007143
  0C   3s        -0.000000  0.027455
  0C   2pz       -0.533401 -0.000000
  0C   2px       -0.000000  0.498342
  0C   2py       -0.000000  0.005667
  0C   1dz2      -0.000000  0.796649
  0C   1dxz      -0.869208 -0.000000
  0C   1dyz      -0.719542 -0.000000
  0C   1dx2y2     0.000000 -0.564294
  0C   1dxy      -0.000000  0.570650
  1S   1s         0.000000 -0.000526
  1S   2s        -0.000000  0.003944
  1S   1pz        0.008674  0.000000
  1S   1px        0.000000 -0.005238
  1S   1py       -0.000000  0.004980
  1S   3s         0.000000 -0.001068
  1S   2pz       -0.027557 -0.000000
  1S   2px       -0.000000  0.016150
  1S   2py        0.000000 -0.016990
  1S   4s        -0.000000 -0.018321
  1S   3pz        0.116795  0.000000
  1S   3px        0.000000 -0.111254
  1S   3py        0.000000 -0.012258
  1S   1dz2       0.000000 -0.012799
  1S   1dxz       0.027940  0.000000
  1S   1dyz      -0.016821 -0.000000
  1S   1dx2y2    -0.000000  0.039813
  1S   1dxy       0.000000 -0.006505
  2H   1s        -0.000000  0.787619
  2H   2s         0.000000 -0.082314
  3H   1s         0.689336 -0.399908
  3H   2s        -0.047209  0.044499
  4H   1s        -0.689336 -0.399908
  4H   2s         0.047209  0.044499

                      0         1         2         3         4         5   
                 -88.86789 -10.21480  -7.94328  -5.90647  -5.90135  -5.89703
                   1.00000   1.00000   1.00000   1.00000   1.00000   1.00000
                  --------  --------  --------  --------  --------  --------
  0C   1s        -0.000039 -0.995285  0.000160  0.000225 -0.000012 -0.000000
  0C   2s        -0.000221 -0.036583  0.000928  0.001515 -0.000119 -0.000000
  0C   1pz        0.000000  0.000000 -0.000000  0.000000 -0.000000  0.000038
  0C   1px        0.000010  0.000124 -0.000047 -0.000039 -0.000058  0.000000
  0C   1py       -0.000138  0.000408  0.000837  0.001176  0.000001  0.000000
  0C   3s         0.000608  0.029052 -0.003004 -0.006299  0.000407  0.000000
  0C   2pz       -0.000000 -0.000000  0.000000 -0.000000 -0.000000  0.000685
  0C   2px       -0.000070 -0.000423  0.000369  0.000383 -0.000636 -0.000000
  0C   2py        0.000125 -0.000822 -0.000892  0.001845 -0.000038 -0.000000
  0C   1dz2      -0.000149 -0.000162  0.000657  0.000803 -0.000084 -0.000000
  0C   1dxz       0.000000  0.000000  0.000000  0.000000  0.000000  0.000074
  0C   1dyz      -0.000000 -0.000000 -0.000000 -0.000000  0.000000 -0.000411
  0C   1dx2y2    -0.000244 -0.000202  0.001072  0.001324  0.000049  0.000000
  0C   1dxy      -0.000003 -0.000023  0.000013  0.000013  0.000426 -0.000000
  1S   1s         0.996630  0.000009 -0.280902  0.001877  0.000019 -0.000000
  1S   2s         0.012466 -0.000059  1.027129 -0.007054 -0.000074  0.000000
  1S   1pz        0.000000  0.000000  0.000000 -0.000000  0.000000 -0.991373
  1S   1px       -0.000000 -0.000006  0.000125  0.007051  0.991049  0.000000
  1S   1py        0.000099 -0.000018  0.006155  0.990645 -0.007032 -0.000000
  1S   3s        -0.004207 -0.000081  0.036402  0.000918 -0.000054  0.000000
  1S   2pz       -0.000000 -0.000000 -0.000000 -0.000000  0.000000 -0.028774
  1S   2px        0.000005  0.000035 -0.000020  0.000177  0.029792  0.000000
  1S   2py       -0.000252 -0.000655  0.001692  0.031450 -0.000272 -0.000000
  1S   4s         0.002220 -0.004576 -0.014176  0.001775 -0.000008 -0.000000
  1S   3pz       -0.000000  0.000000 -0.000000  0.000000 -0.000000  0.008127
  1S   3px       -0.000000 -0.000050  0.000000 -0.000064 -0.008649 -0.000000
  1S   3py        0.000293 -0.003007 -0.001822 -0.007631  0.000071 -0.000000
  1S   1dz2       0.000029 -0.000077 -0.000420 -0.000766 -0.000008 -0.000000
  1S   1dxz       0.000000 -0.000000 -0.000000  0.000000  0.000000  0.000005
  1S   1dyz       0.000000  0.000000 -0.000000  0.000000  0.000000 -0.000514
  1S   1dx2y2     0.000059 -0.000128 -0.000558 -0.001359  0.000032  0.000000
  1S   1dxy       0.000003  0.000002 -0.000012 -0.000010  0.000486  0.000000
  2H   1s         0.000029  0.000596 -0.000075  0.000351  0.000051 -0.000000
  2H   2s        -0.000408 -0.005266  0.002243  0.001954 -0.001752 -0.000000
  3H   1s         0.000040  0.000686 -0.000144  0.000234 -0.000079  0.000097
  3H   2s        -0.000334 -0.005097  0.001868  0.001608  0.000696 -0.001379
  4H   1s         0.000040  0.000686 -0.000144  0.000234 -0.000079 -0.000097
  4H   2s        -0.000334 -0.005097  0.001868  0.001608  0.000696  0.001379
                      6         7         8         9        10        11   
                  -0.76655  -0.60575  -0.43666  -0.43188  -0.35937  -0.22965
                   1.00000   1.00000   1.00000   1.00000   1.00000   1.00000
                  --------  --------  --------  --------  --------  --------
  0C   1s         0.169232 -0.103565 -0.000000 -0.003701 -0.021839 -0.000000
  0C   2s        -0.324534  0.207307 -0.000000  0.007862  0.043876 -0.000000
  0C   1pz       -0.000000 -0.000000  0.448541  0.000000 -0.000000 -0.106670
  0C   1px        0.008119 -0.005819 -0.000000  0.447130  0.025772 -0.000000
  0C   1py        0.046065  0.187233 -0.000000  0.026023 -0.376780 -0.000000
  0C   3s        -0.324380  0.211120  0.000000  0.008839  0.127721  0.000000
  0C   2pz       -0.000000  0.000000  0.221805 -0.000000  0.000000 -0.015185
  0C   2px        0.003367 -0.001613 -0.000000  0.227948  0.017021 -0.000000
  0C   2py        0.021141  0.072780 -0.000000  0.015601 -0.223708 -0.000000
  0C   1dz2       0.002164  0.008456 -0.000000  0.018991 -0.008636 -0.000000
  0C   1dxz       0.000000  0.000000  0.018250  0.000000 -0.000000 -0.007086
  0C   1dyz       0.000000  0.000000  0.011683  0.000000 -0.000000 -0.023950
  0C   1dx2y2     0.002888  0.013354  0.000000 -0.012856 -0.014264 -0.000000
  0C   1dxy      -0.000674  0.000418 -0.000000  0.007438  0.000256 -0.000000
  1S   1s        -0.043382 -0.063012 -0.000000  0.001901 -0.022546  0.000000
  1S   2s         0.198208  0.287224  0.000000 -0.008566  0.106776  0.000000
  1S   1pz        0.000000  0.000000 -0.056366 -0.000000  0.000000 -0.261312
  1S   1px       -0.000375  0.000434  0.000000 -0.048399 -0.005632 -0.000000
  1S   1py        0.055743 -0.004935 -0.000000  0.006166 -0.204230 -0.000000
  1S   3s        -0.396444 -0.600216 -0.000000  0.019392 -0.212224  0.000000
  1S   2pz       -0.000000 -0.000000  0.139976  0.000000 -0.000000  0.689322
  1S   2px        0.000657 -0.001086 -0.000000  0.116272  0.014196  0.000000
  1S   2py       -0.128438  0.007740  0.000000 -0.014512  0.520823  0.000000
  1S   4s        -0.104294 -0.252791 -0.000000  0.014864 -0.258951 -0.000000
  1S   3pz        0.000000  0.000000  0.048886  0.000000 -0.000000  0.430831
  1S   3px        0.000524  0.000287 -0.000000  0.042801  0.005612 -0.000000
  1S   3py        0.006012  0.013430 -0.000000 -0.002912  0.149876 -0.000000
  1S   1dz2       0.014403 -0.001382 -0.000000  0.002379 -0.025306  0.000000
  1S   1dxz      -0.000000  0.000000  0.001432  0.000000  0.000000 -0.001307
  1S   1dyz      -0.000000  0.000000  0.026566  0.000000 -0.000000  0.006168
  1S   1dx2y2     0.032619  0.010952 -0.000000 -0.000181 -0.037644  0.000000
  1S   1dxy       0.000223 -0.000679 -0.000000  0.027925  0.002094  0.000000
  2H   1s        -0.104557  0.109401  0.000000 -0.260726 -0.071044  0.000000
  2H   2s        -0.020534  0.047505  0.000000 -0.198981 -0.073964 -0.000000
  3H   1s        -0.099437  0.113334  0.225694  0.130901 -0.064014 -0.092471
  3H   2s        -0.018102  0.046783  0.164229  0.097223 -0.066649 -0.140836
  4H   1s        -0.099437  0.113334 -0.225694  0.130901 -0.064014  0.092471
  4H   2s        -0.018102  0.046783 -0.164229  0.097223 -0.066649  0.140836
                     12        13        14        15        16        17   
                  -0.15120   0.05469   0.11916   0.14217   0.14677   0.33312
                   0.00000   0.00000   0.00000   0.00000   0.00000   0.00000
                  --------  --------  --------  --------  --------  --------
  0C   1s         0.000319  0.136514  0.077365 -0.020082 -0.000000  0.018496
  0C   2s         0.000109 -0.184984 -0.053775  0.020286  0.000000 -0.071514
  0C   1pz        0.000000 -0.000000 -0.000000 -0.000000 -0.392943 -0.000000
  0C   1px        0.094518 -0.006008  0.108355  0.377281 -0.000000  0.028819
  0C   1py       -0.002569  0.255158 -0.358100  0.110824  0.000000 -0.195332
  0C   3s        -0.005369 -1.746347 -1.613762  0.386906  0.000000 -0.047834
  0C   2pz       -0.000000 -0.000000 -0.000000 -0.000000 -1.383278 -0.000000
  0C   2px        0.010703 -0.003079  0.368854  1.278546 -0.000000  0.023902
  0C   2py       -0.006765  0.543547 -0.876117  0.311892  0.000000 -0.347649
  0C   1dz2       0.006524 -0.002470  0.008036 -0.016597 -0.000000 -0.018227
  0C   1dxz       0.000000  0.000000  0.000000 -0.000000  0.016692  0.000000
  0C   1dyz       0.000000  0.000000  0.000000 -0.000000  0.014190  0.000000
  0C   1dx2y2    -0.005205 -0.007031  0.021947  0.004787 -0.000000 -0.031791
  0C   1dxy       0.023807 -0.000349 -0.001918 -0.012773  0.000000 -0.000635
  1S   1s         0.000077  0.017126 -0.025756  0.005198  0.000000  0.069259
  1S   2s        -0.000352 -0.093007  0.081492 -0.018192 -0.000000 -0.088997
  1S   1pz        0.000000 -0.000000  0.000000 -0.000000 -0.000873  0.000000
  1S   1px        0.252742 -0.003143 -0.000365  0.000936  0.000000 -0.008839
  1S   1py       -0.004736 -0.138458  0.077098 -0.014996 -0.000000  0.073975
  1S   3s         0.000835  0.138029 -0.423135  0.079463  0.000000  1.640466
  1S   2pz       -0.000000  0.000000 -0.000000  0.000000 -0.017167 -0.000000
  1S   2px       -0.650901  0.008867  0.004921  0.016204 -0.000000  0.034237
  1S   2py        0.012194  0.386690 -0.230793  0.044816  0.000000 -0.250872
  1S   4s        -0.000776  0.747205 -0.048516  0.078881  0.000000 -2.115434
  1S   3pz        0.000000  0.000000  0.000000 -0.000000  0.300975  0.000000
  1S   3px       -0.478033  0.008232 -0.063314 -0.271227  0.000000 -0.030592
  1S   3py        0.007920  0.994691 -0.397105  0.148267  0.000000 -0.236979
  1S   1dz2       0.001164  0.061564 -0.027725 -0.014631  0.000000 -0.070126
  1S   1dxz      -0.000000  0.000000  0.000000  0.000000  0.023985 -0.000000
  1S   1dyz      -0.000000 -0.000000 -0.000000 -0.000000 -0.076633 -0.000000
  1S   1dx2y2    -0.001034  0.096323 -0.029317  0.027069 -0.000000 -0.115004
  1S   1dxy      -0.005383 -0.002340  0.014704  0.065886 -0.000000  0.001535
  2H   1s        -0.104489  0.010771  0.070151  0.110961 -0.000000  0.018809
  2H   2s        -0.174164  0.400394  1.397037  1.381188 -0.000000  0.390028
  3H   1s         0.050040  0.020433  0.020486 -0.072235  0.102160  0.024132
  3H   2s         0.085576  0.409455  0.806561 -1.081130  1.504235  0.328727
  4H   1s         0.050040  0.020433  0.020486 -0.072235 -0.102160  0.024132
  4H   2s         0.085576  0.409455  0.806561 -1.081130 -1.504235  0.328727
                     18        19        20        21        22        23   
                   0.37223   0.38940   0.39580   0.52058   0.52295   0.58346
                   0.00000   0.00000   0.00000   0.00000   0.00000   0.00000
                  --------  --------  --------  --------  --------  --------
  0C   1s         0.032865 -0.000000 -0.003804  0.001609 -0.000000 -0.029558
  0C   2s        -0.206528  0.000000  0.031024 -0.029466 -0.000000  0.135781
  0C   1pz        0.000000  0.041108 -0.000000 -0.000000 -0.715031  0.000000
  0C   1px        0.031938 -0.000000 -0.032345 -0.731016  0.000000  0.050900
  0C   1py       -0.045764  0.000000  0.015404 -0.049776 -0.000000 -0.849748
  0C   3s         0.398736 -0.000000 -0.035773  0.036830  0.000000 -0.057653
  0C   2pz        0.000000  0.031361 -0.000000  0.000000  1.374373 -0.000000
  0C   2px       -0.001434  0.000000 -0.048162  1.354167 -0.000000 -0.111220
  0C   2py        0.067015 -0.000000 -0.024578  0.147438  0.000000  2.065271
  0C   1dz2      -0.044951  0.000000  0.021286 -0.076425  0.000000 -0.037340
  0C   1dxz      -0.000000 -0.016710  0.000000 -0.000000 -0.075613 -0.000000
  0C   1dyz       0.000000  0.002230  0.000000 -0.000000 -0.084578 -0.000000
  0C   1dx2y2    -0.083642  0.000000 -0.001162  0.037869 -0.000000 -0.066491
  0C   1dxy      -0.001026 -0.000000 -0.005653 -0.068800  0.000000 -0.000760
  1S   1s         0.008182 -0.000000 -0.002729  0.001328  0.000000 -0.016383
  1S   2s         0.010668  0.000000  0.001209 -0.001151 -0.000000  0.018945
  1S   1pz        0.000000  0.294873 -0.000000  0.000000  0.009255  0.000000
  1S   1px       -0.027860  0.000000 -0.303036  0.004522 -0.000000 -0.004213
  1S   1py       -0.275756  0.000000  0.022436 -0.007071  0.000000  0.086122
  1S   3s         0.273068 -0.000000 -0.073508  0.034929  0.000000 -0.378867
  1S   2pz       -0.000000 -1.192150  0.000000 -0.000000 -0.013817 -0.000000
  1S   2px        0.109623 -0.000000  1.210431  0.003896  0.000000  0.017401
  1S   2py        1.142419 -0.000000 -0.096393  0.039139 -0.000000 -0.234617
  1S   4s        -0.493843  0.000000  0.097461  0.025847  0.000000  1.569019
  1S   3pz        0.000000  1.274039 -0.000000 -0.000000 -0.366845  0.000000
  1S   3px       -0.100751 -0.000000 -1.253918 -0.377281  0.000000  0.000015
  1S   3py       -1.484255  0.000000  0.134605 -0.001453  0.000000  1.172038
  1S   1dz2      -0.060987  0.000000  0.017384 -0.028743  0.000000 -0.105040
  1S   1dxz      -0.000000 -0.008314  0.000000 -0.000000 -0.021343  0.000000
  1S   1dyz      -0.000000 -0.032494 -0.000000  0.000000  0.354449 -0.000000
  1S   1dx2y2    -0.099889  0.000000  0.008532 -0.001127 -0.000000 -0.179145
  1S   1dxy      -0.000768  0.000000  0.033928  0.314834 -0.000000 -0.017414
  2H   1s        -0.085327  0.000000 -0.060939  0.416285 -0.000000 -0.273332
  2H   2s         0.296154 -0.000000 -0.275756  0.095142 -0.000000 -0.435831
  3H   1s        -0.048690 -0.064510  0.048219 -0.235458 -0.371611 -0.248146
  3H   2s         0.215671 -0.194587  0.080013 -0.056203 -0.122816 -0.434388
  4H   1s        -0.048690  0.064510  0.048219 -0.235458  0.371611 -0.248146
  4H   2s         0.215671  0.194587  0.080013 -0.056203  0.122816 -0.434388
                     24        25        26        27        28        29   
                   0.79433   0.79672   0.84971   0.85678   0.87970   0.88685
                   0.00000   0.00000   0.00000   0.00000   0.00000   0.00000
                  --------  --------  --------  --------  --------  --------
  0C   1s        -0.000501  0.000000 -0.004262  0.000000  0.034626  0.007100
  0C   2s        -0.031832  0.000000  0.062660 -0.000000 -0.491660  0.006719
  0C   1pz       -0.000000  0.371524  0.000000 -0.786558  0.000000 -0.000000
  0C   1px        0.484149  0.000000 -0.630015 -0.000000 -0.062051 -0.392093
  0C   1py       -0.031419  0.000000  0.064035 -0.000000 -0.717612 -0.073467
  0C   3s         0.098541 -0.000000 -0.143267  0.000000  1.169372 -0.047624
  0C   2pz        0.000000 -0.650127 -0.000000  1.633195 -0.000000  0.000000
  0C   2px       -0.836478 -0.000000  1.374593  0.000000  0.213859  0.172039
  0C   2py        0.004455 -0.000000 -0.045042  0.000000  0.784717  0.086015
  0C   1dz2      -0.008969 -0.000000  0.016257  0.000000  0.064766  0.188852
  0C   1dxz       0.000000  0.003894 -0.000000  0.047338 -0.000000 -0.000000
  0C   1dyz       0.000000 -0.080728 -0.000000  0.157659 -0.000000  0.000000
  0C   1dx2y2     0.019308  0.000000 -0.032819  0.000000  0.128015 -0.108453
  0C   1dxy      -0.102356 -0.000000  0.141335  0.000000  0.035242 -0.029816
  1S   1s        -0.000459  0.000000  0.000082 -0.000000  0.002715 -0.000746
  1S   2s         0.002310 -0.000000  0.003669  0.000000 -0.004792  0.000849
  1S   1pz       -0.000000  0.001786 -0.000000  0.003564  0.000000 -0.000000
  1S   1px        0.003239  0.000000 -0.001030 -0.000000 -0.000930  0.021680
[...]
     25      -0.000625   0.000316  -0.000087   0.000420   0.000000  -0.010675
     26      -0.001915   0.000018  -0.003702   0.019263   0.000000  -0.000683
     27       0.000352   0.000001   0.000182  -0.000690  -0.000000   0.000008
     28      -0.000000   0.000000   0.000000  -0.000000   0.000256   0.000000
     29      -0.000000  -0.000000  -0.000000   0.000000  -0.002600  -0.000000
     30       0.000777  -0.000028  -0.001044   0.005030  -0.000000   0.000235
     31      -0.000397   0.000208   0.000045  -0.000179  -0.000000  -0.000882
     32       0.005524  -0.001841  -0.001201   0.005267  -0.000000   0.013159
     33       0.004194  -0.001466  -0.001847   0.005668   0.000000   0.008353
     34       0.000457   0.001072  -0.001055   0.004737   0.011346  -0.005965
     35       0.000279   0.000738  -0.001330   0.003804   0.028913  -0.003602
     36       0.000457   0.001072  -0.001055   0.004737  -0.011346  -0.005965
     37       0.000279   0.000738  -0.001330   0.003804  -0.028913  -0.003602
                 18         19         20         21         22         23    
      0       0.014623  -0.000280  -0.000000  -0.000552  -0.033198   0.018683
      1      -0.026518  -0.004889  -0.000000   0.001094   0.066098  -0.029647
      2       0.000000  -0.000000  -0.010746   0.000000  -0.000000   0.000000
      3      -0.002063   0.003474  -0.000000   0.052364   0.005845   0.000597
      4       0.079924  -0.050144   0.000000  -0.002496  -0.201042   0.045807
      5      -0.051416  -0.025173   0.000000   0.002411   0.109466  -0.052581
      6      -0.000000  -0.000000   0.020560  -0.000000   0.000000  -0.000000
      7      -0.001489   0.000456  -0.000000   0.026731   0.005125  -0.000966
      8       0.048426  -0.004318  -0.000000  -0.001428  -0.118834   0.037578
      9       0.002759  -0.003707  -0.000000   0.002075  -0.004959   0.000148
     10       0.000000  -0.000000  -0.002332  -0.000000  -0.000000   0.000000
     11       0.000000  -0.000000  -0.014862  -0.000000  -0.000000   0.000000
     12       0.004247  -0.006341  -0.000000  -0.001708  -0.007466  -0.000187
     13      -0.000036   0.000107  -0.000000   0.000880   0.000116   0.000009
     14       0.002738   0.045424   0.000000  -0.000048  -0.007353   0.032517
     15      -0.012893  -0.236471  -0.000000   0.000313   0.034014  -0.135602
     16      -0.000000  -0.000000  -0.159492  -0.000000  -0.000000   0.000000
     17       0.000845   0.000102  -0.000000   0.023819  -0.002226   0.000671
     18       1.026345   0.025458   0.000000  -0.002174  -0.082487   0.050083
     19       0.025458   0.564186   0.000000  -0.000368  -0.064448   0.247796
     20       0.000000   0.000000   0.495586   0.000000   0.000000  -0.000000
     21      -0.002174  -0.000368   0.000000   0.014610   0.005611  -0.001741
     22      -0.082487  -0.064448   0.000000   0.005611   0.289016  -0.123610
     23       0.050083   0.247796  -0.000000  -0.001741  -0.123610   0.142287
     24       0.000000   0.000000   0.303590   0.000000   0.000000  -0.000000
     25      -0.000857  -0.000741  -0.000000   0.004799   0.002237  -0.000944
     26      -0.037930  -0.042382  -0.000000   0.001779   0.077192  -0.042849
     27       0.005231   0.000520   0.000000  -0.000072  -0.015100   0.005440
     28      -0.000000  -0.000000  -0.000701   0.000000   0.000000   0.000000
     29       0.000000   0.000000   0.007985   0.000000   0.000000  -0.000000
     30       0.008101  -0.011542   0.000000  -0.000545  -0.023751   0.003581
     31      -0.000253   0.000416   0.000000   0.003292   0.000651   0.000021
     32       0.006880  -0.014195   0.000000  -0.031509  -0.018931  -0.002230
     33       0.014462  -0.008449  -0.000000  -0.024303  -0.032560   0.006323
     34       0.008010  -0.012485  -0.032154   0.014121  -0.021584   0.000242
     35       0.014571  -0.004802  -0.074054   0.010316  -0.033379   0.008765
     36       0.008010  -0.012485   0.032154   0.014121  -0.021584   0.000242
     37       0.014571  -0.004802   0.074054   0.010316  -0.033379   0.008765
                 24         25         26         27         28         29    
      0      -0.000000  -0.000172  -0.000645   0.003201  -0.000000  -0.000000
      1      -0.000000   0.000475   0.007483  -0.006051   0.000000  -0.000000
      2      -0.024029  -0.000000  -0.000000  -0.000000   0.000782   0.011258
      3       0.000000   0.019285   0.002531   0.000537   0.000000   0.000000
      4       0.000000  -0.000923  -0.053766   0.010000  -0.000000   0.000000
      5       0.000000   0.000981   0.019968  -0.008171   0.000000   0.000000
      6       0.004306  -0.000000  -0.000000  -0.000000   0.000337   0.005799
      7      -0.000000   0.009859   0.001884   0.000162   0.000000   0.000000
      8      -0.000000  -0.000556  -0.032479   0.005901   0.000000  -0.000000
      9      -0.000000   0.000769  -0.001230   0.000282   0.000000  -0.000000
     10      -0.002160  -0.000000   0.000000   0.000000   0.000035   0.000441
     11      -0.009751  -0.000000   0.000000  -0.000000   0.000048   0.000163
     12      -0.000000  -0.000625  -0.001915   0.000352  -0.000000  -0.000000
     13      -0.000000   0.000316   0.000018   0.000001   0.000000  -0.000000
     14       0.000000  -0.000087  -0.003702   0.000182   0.000000  -0.000000
     15       0.000000   0.000420   0.019263  -0.000690  -0.000000   0.000000
     16      -0.123394   0.000000   0.000000  -0.000000   0.000256  -0.002600
     17      -0.000000  -0.010675  -0.000683   0.000008   0.000000  -0.000000
     18       0.000000  -0.000857  -0.037930   0.005231  -0.000000   0.000000
     19       0.000000  -0.000741  -0.042382   0.000520  -0.000000   0.000000
     20       0.303590  -0.000000  -0.000000   0.000000  -0.000701   0.007985
     21       0.000000   0.004799   0.001779  -0.000072   0.000000   0.000000
     22       0.000000   0.002237   0.077192  -0.015100   0.000000   0.000000
     23      -0.000000  -0.000944  -0.042849   0.005440   0.000000  -0.000000
     24       0.188071  -0.000000  -0.000000   0.000000  -0.000493   0.003952
     25      -0.000000   0.001939   0.000724  -0.000033  -0.000000  -0.000000
     26      -0.000000   0.000724   0.022758  -0.003725   0.000000  -0.000000
     27       0.000000  -0.000033  -0.003725   0.000856  -0.000000   0.000000
     28      -0.000493  -0.000000   0.000000  -0.000000   0.000004   0.000030
     29       0.003952  -0.000000  -0.000000   0.000000   0.000030   0.000744
     30       0.000000  -0.000199  -0.005286   0.001408  -0.000000   0.000000
     31       0.000000   0.001203   0.000225   0.000018   0.000000   0.000000
     32      -0.000000  -0.011582  -0.009052  -0.000480   0.000000  -0.000000
     33      -0.000000  -0.008913  -0.009995   0.001035  -0.000000  -0.000000
     34      -0.028806   0.005224  -0.009055   0.000342   0.000444   0.005426
     35      -0.052659   0.003785  -0.009753   0.001591   0.000419   0.003495
     36       0.028806   0.005224  -0.009055   0.000342  -0.000444  -0.005426
     37       0.052659   0.003785  -0.009753   0.001591  -0.000419  -0.003495
                 30         31         32         33         34         35    
      0       0.005336  -0.000043  -0.027101  -0.000801  -0.028334  -0.001739
      1      -0.009966   0.000098   0.051423   0.011900   0.053961   0.013604
      2       0.000000  -0.000000  -0.000000  -0.000000   0.111097   0.088687
      3      -0.000850   0.012546  -0.119895  -0.091320   0.055413   0.041334
      4       0.017730  -0.000179   0.035651   0.030641   0.044165   0.035569
      5      -0.013072   0.000299   0.045650   0.005312   0.049183   0.007932
      6      -0.000000  -0.000000   0.000000   0.000000   0.051464   0.038565
      7      -0.000591   0.006403  -0.061170  -0.046757   0.028231   0.020894
      8       0.009903  -0.000078   0.017577   0.016471   0.022509   0.019454
      9       0.000483   0.000507  -0.003639  -0.002779   0.003782   0.002782
     10       0.000000  -0.000000  -0.000000  -0.000000   0.004774   0.003995
     11       0.000000  -0.000000   0.000000   0.000000   0.004851   0.005292
     12       0.000777  -0.000397   0.005524   0.004194   0.000457   0.000279
     13      -0.000028   0.000208  -0.001841  -0.001466   0.001072   0.000738
     14      -0.001044   0.000045  -0.001201  -0.001847  -0.001055  -0.001330
     15       0.005030  -0.000179   0.005267   0.005668   0.004737   0.003804
     16      -0.000000  -0.000000  -0.000000   0.000000   0.011346   0.028913
     17       0.000235  -0.000882   0.013159   0.008353  -0.005965  -0.003602
     18       0.008101  -0.000253   0.006880   0.014462   0.008010   0.014571
     19      -0.011542   0.000416  -0.014195  -0.008449  -0.012485  -0.004802
     20       0.000000   0.000000   0.000000  -0.000000  -0.032154  -0.074054
     21      -0.000545   0.003292  -0.031509  -0.024303   0.014121   0.010316
     22      -0.023751   0.000651  -0.018931  -0.032560  -0.021584  -0.033379
     23       0.003581   0.000021  -0.002230   0.006323   0.000242   0.008765
     24       0.000000   0.000000  -0.000000  -0.000000  -0.028806  -0.052659
     25      -0.000199   0.001203  -0.011582  -0.008913   0.005224   0.003785
     26      -0.005286   0.000225  -0.009052  -0.009995  -0.009055  -0.009753
     27       0.001408   0.000018  -0.000480   0.001035   0.000342   0.001591
     28      -0.000000   0.000000   0.000000  -0.000000   0.000444   0.000419
     29       0.000000   0.000000  -0.000000  -0.000000   0.005426   0.003495
     30       0.002603  -0.000084   0.000509   0.002668   0.000383   0.002411
     31      -0.000084   0.000785  -0.007527  -0.005749   0.003422   0.002540
     32       0.000509  -0.007527   0.095926   0.064475  -0.006785  -0.013605
     33       0.002668  -0.005749   0.064475   0.047782  -0.013890  -0.011789
     34       0.000383   0.003422  -0.006785  -0.013890   0.103455   0.074180
     35       0.002411   0.002540  -0.013605  -0.011789   0.074180   0.063251
     36       0.000383   0.003422  -0.006785  -0.013890  -0.015523  -0.025997
     37       0.002411   0.002540  -0.013605  -0.011789  -0.025997  -0.030365
                  36         37    
      0      -0.028334  -0.001739
      1       0.053961   0.013604
      2      -0.111097  -0.088687
      3       0.055413   0.041334
      4       0.044165   0.035569
      5       0.049183   0.007932
      6      -0.051464  -0.038565
      7       0.028231   0.020894
      8       0.022509   0.019454
      9       0.003782   0.002782
     10      -0.004774  -0.003995
     11      -0.004851  -0.005292
     12       0.000457   0.000279
     13       0.001072   0.000738
     14      -0.001055  -0.001330
     15       0.004737   0.003804
     16      -0.011346  -0.028913
     17      -0.005965  -0.003602
     18       0.008010   0.014571
     19      -0.012485  -0.004802
     20       0.032154   0.074054
     21       0.014121   0.010316
     22      -0.021584  -0.033379
     23       0.000242   0.008765
     24       0.028806   0.052659
     25       0.005224   0.003785
     26      -0.009055  -0.009753
     27       0.000342   0.001591
     28      -0.000444  -0.000419
     29      -0.005426  -0.003495
     30       0.000383   0.002411
     31       0.003422   0.002540
     32      -0.006785  -0.013605
     33      -0.013890  -0.011789
     34      -0.015523  -0.025997
     35      -0.025997  -0.030365
     36       0.103455   0.074180
     37       0.074180   0.063251



                    ********************************
                    * MULLIKEN POPULATION ANALYSIS *
                    ********************************

--------------------------------------------
MULLIKEN ATOMIC CHARGES AND SPIN POPULATIONS
--------------------------------------------
   0 C :   -0.599046   -0.032982
   1 S :    0.009247    0.976907
   2 H :    0.200619    0.038631
   3 H :    0.194590    0.008722
   4 H :    0.194590    0.008722
Sum of atomic charges         :   -0.0000000
Sum of atomic spin populations:    1.0000000

-----------------------------------------------------
MULLIKEN REDUCED ORBITAL CHARGES AND SPIN POPULATIONS
-----------------------------------------------------
CHARGE
  0 C s       :     3.375139  s :     3.375139
      pz      :     1.130145  p :     3.189428
      px      :     1.112698
      py      :     0.946585
      dz2     :     0.007194  d :     0.034479
      dxz     :     0.005567
      dyz     :     0.009494
      dx2y2   :     0.008129
      dxy     :     0.004096
  1 S s       :     5.933182  s :     5.933182
      pz      :     3.966333  p :    10.023446
      px      :     3.030235
      py      :     3.026879
      dz2     :     0.005676  d :     0.034124
      dxz     :     0.000022
      dyz     :     0.005042
      dx2y2   :     0.017640
      dxy     :     0.005744
  2 H s       :     0.799381  s :     0.799381
  3 H s       :     0.805410  s :     0.805410
  4 H s       :     0.805410  s :     0.805410

SPIN
  0 C s       :    -0.007870  s :    -0.007870
      pz      :    -0.003925  p :    -0.028622
      px      :    -0.001998
      py      :    -0.022699
      dz2     :     0.000316  d :     0.003511
      dxz     :     0.000039
      dyz     :    -0.000075
      dx2y2   :     0.000189
      dxy     :     0.003041
  1 S s       :     0.017238  s :     0.017238
      pz      :     0.001081  p :     0.958543
      px      :     0.947783
      py      :     0.009679
      dz2     :     0.000040  d :     0.001126
      dxz     :     0.000000
      dyz     :     0.000055
      dx2y2   :     0.000914
      dxy     :     0.000116
  2 H s       :     0.038631  s :     0.038631
  3 H s       :     0.008722  s :     0.008722
  4 H s       :     0.008722  s :     0.008722


                     *******************************
                     * LOEWDIN POPULATION ANALYSIS *
                     *******************************

-------------------------------------------
LOEWDIN ATOMIC CHARGES AND SPIN POPULATIONS
-------------------------------------------
   0 C :   -0.479216   -0.008002
   1 S :    0.028512    0.954941
   2 H :    0.161527    0.037120
   3 H :    0.144588    0.007971
   4 H :    0.144588    0.007971

----------------------------------------------------
LOEWDIN REDUCED ORBITAL CHARGES AND SPIN POPULATIONS
----------------------------------------------------
CHARGE
  0 C s       :     3.036843  s :     3.036843
      pz      :     1.169018  p :     3.375450
      px      :     1.154026
      py      :     1.052406
      dz2     :     0.013330  d :     0.066923
      dxz     :     0.009902
      dyz     :     0.017823
      dx2y2   :     0.017703
      dxy     :     0.008165
  1 S s       :     5.806223  s :     5.806223
      pz      :     3.957739  p :    10.125293
      px      :     3.030775
      py      :     3.136778
      dz2     :     0.006846  d :     0.039973
      dxz     :     0.000027
      dyz     :     0.005306
      dx2y2   :     0.021822
      dxy     :     0.005971
  2 H s       :     0.838473  s :     0.838473
  3 H s       :     0.855412  s :     0.855412
  4 H s       :     0.855412  s :     0.855412

SPIN
  0 C s       :    -0.003277  s :    -0.003277
      pz      :    -0.002294  p :    -0.011958
      px      :     0.005654
      py      :    -0.015317
      dz2     :     0.000792  d :     0.007232
      dxz     :     0.000065
      dyz     :    -0.000088
      dx2y2   :     0.000688
      dxy     :     0.005775
  1 S s       :     0.008588  s :     0.008588
      pz      :     0.000929  p :     0.945032
      px      :     0.936610
      py      :     0.007493
      dz2     :    -0.000239  d :     0.001320
      dxz     :     0.000000
      dyz     :     0.000030
      dx2y2   :     0.001405
      dxy     :     0.000124
  2 H s       :     0.037120  s :     0.037120
  3 H s       :     0.007971  s :     0.007971
  4 H s       :     0.007971  s :     0.007971


                      *****************************
                      * MAYER POPULATION ANALYSIS *
                      *****************************

  NA   - Mulliken gross atomic population
  ZA   - Total nuclear charge
  QA   - Mulliken gross atomic charge
  VA   - Mayer's total valence
  BVA  - Mayer's bonded valence
  FA   - Mayer's free valence

  ATOM       NA         ZA         QA         VA         BVA        FA
  0 C      6.5990     6.0000    -0.5990     3.8217     3.8206     0.0011
  1 S     15.9908    16.0000     0.0092     1.9708     1.0645     0.9063
  2 H      0.7994     1.0000     0.2006     0.9168     0.9152     0.0016
  3 H      0.8054     1.0000     0.1946     0.9117     0.9116     0.0001
  4 H      0.8054     1.0000     0.1946     0.9117     0.9116     0.0001

  Mayer bond orders larger than 0.1
B(  0-C ,  1-S ) :   1.0438 B(  0-C ,  2-H ) :   0.9179 B(  0-C ,  3-H ) :   0.9295 
B(  0-C ,  4-H ) :   0.9295 

-------
TIMINGS
-------

Total SCF time: 0 days 0 hours 0 min 14 sec 

Total time                  ....      14.309 sec
Sum of individual times     ....      16.570 sec  (115.8%)

Fock matrix formation       ....      13.924 sec  ( 97.3%)
  Coulomb formation         ....       6.286 sec  ( 45.1% of F)
  XC integration            ....       7.444 sec  ( 53.5% of F)
    Basis function eval.    ....       2.174 sec  ( 29.2% of XC)
    Density eval.           ....       1.279 sec  ( 17.2% of XC)
    XC-Functional eval.     ....       1.537 sec  ( 20.6% of XC)
    XC-Potential eval.      ....       1.013 sec  ( 13.6% of XC)
Diagonalization             ....       0.026 sec  (  0.2%)
Density matrix formation    ....       0.001 sec  (  0.0%)
Population analysis         ....       0.043 sec  (  0.3%)
Initial guess               ....       1.751 sec  ( 12.2%)
Orbital Transformation      ....       0.000 sec  (  0.0%)
Orbital Orthonormalization  ....       0.000 sec  (  0.0%)
DIIS solution               ....       0.058 sec  (  0.4%)
Grid generation             ....       0.768 sec  (  5.4%)

-------------------------   --------------------
FINAL SINGLE POINT ENERGY      -438.056053993245
-------------------------   --------------------


                            ***************************************
                            *     ORCA property calculations      *
                            ***************************************

                                    ---------------------
                                    Active property flags
                                    ---------------------
   (+) Dipole Moment


------------------------------------------------------------------------------
                       ORCA ELECTRIC PROPERTIES CALCULATION
------------------------------------------------------------------------------

Dipole Moment Calculation                       ... on
Quadrupole Moment Calculation                   ... off
Polarizability Calculation                      ... off
GBWName                                         ... orcaMR.gbw
Electron density file                           ... orcaMR.scfp.tmp

-------------
DIPOLE MOMENT
-------------
                                X             Y             Z
Electronic contribution:      0.05593      -3.77447       0.00000
Nuclear contribution   :     -0.09285       4.47926       0.00000
                        -----------------------------------------
Total Dipole Moment    :     -0.03693       0.70479       0.00000
                        -----------------------------------------
Magnitude (a.u.)       :      0.70576
Magnitude (Debye)      :      1.79390


Timings for individual modules:

Sum of individual times         ...       16.642 sec (=   0.277 min)
GTO integral calculation        ...        0.504 sec (=   0.008 min)   3.0 %
SCF iterations                  ...       16.137 sec (=   0.269 min)  97.0 %
                             ****ORCA TERMINATED NORMALLY****
TOTAL RUN TIME: 0 days 0 hours 0 minutes 17 seconds 310 msec
