
                                 *****************
                                 * O   R   C   A *
                                 *****************

           --- An Ab Initio, DFT and Semiempirical electronic structure package ---

                  #######################################################
                  #                        -***-                        #
                  #          Department of theory and spectroscopy      #
                  #               Directorship: Frank Neese             #
                  #        Max Planck Institute fuer Kohlenforschung    #
                  #                Kaiser Wilhelm Platz 1               #
                  #                 D-45470 Muelheim/Ruhr               #
                  #                      Germany                        #
                  #                                                     #
                  #                  All rights reserved                #
                  #                        -***-                        #
                  #######################################################


                         Program Version 4.2.1 -  RELEASE  -


 With contributions from (in alphabetic order):
   Daniel Aravena         : Magnetic Suceptibility
   Michael Atanasov       : Ab Initio Ligand Field Theory (pilot matlab implementation)
   Alexander A. Auer      : GIAO ZORA, VPT2
   Ute Becker             : Parallelization
   Giovanni Bistoni       : ED, misc. LED, open-shell LED, HFLD
   Martin Brehm           : Molecular dynamics
   Dmytro Bykov           : SCF Hessian
   Vijay G. Chilkuri      : MRCI spin determinant printing, contributions to CSF-ICE
   Dipayan Datta          : RHF DLPNO-CCSD density
   Achintya Kumar Dutta   : EOM-CC, STEOM-CC
   Dmitry Ganyushin       : Spin-Orbit,Spin-Spin,Magnetic field MRCI
   Miquel Garcia          : C-PCM Hessian, Gaussian charge scheme
   Yang Guo               : DLPNO-NEVPT2, CIM, IAO-localization
   Andreas Hansen         : Spin unrestricted coupled pair/coupled cluster methods
   Benjamin Helmich-Paris : CASSCF linear response (MC-RPA)
   Lee Huntington         : MR-EOM, pCC
   Robert Izsak           : Overlap fitted RIJCOSX, COSX-SCS-MP3, EOM
   Christian Kollmar      : KDIIS, OOCD, Brueckner-CCSD(T), CCSD density
   Simone Kossmann        : Meta GGA functionals, TD-DFT gradient, OOMP2, MP2 Hessian
   Martin Krupicka        : AUTO-CI
   Lucas Lang             : DCDCAS
   Dagmar Lenk            : GEPOL surface, SMD
   Dimitrios Liakos       : Extrapolation schemes; Compound Job, initial MDCI parallelization
   Dimitrios Manganas     : Further ROCIS development; embedding schemes
   Dimitrios Pantazis     : SARC Basis sets
   Taras Petrenko         : DFT Hessian,TD-DFT gradient, ASA, ECA, R-Raman, ABS, FL, XAS/XES, NRVS
   Peter Pinski           : DLPNO-MP2, DLPNO-MP2 Gradient
   Christoph Reimann      : Effective Core Potentials
   Marius Retegan         : Local ZFS, SOC
   Christoph Riplinger    : Optimizer, TS searches, QM/MM, DLPNO-CCSD(T), (RO)-DLPNO pert. Triples
   Tobias Risthaus        : Range-separated hybrids, TD-DFT gradient, RPA, STAB
   Michael Roemelt        : Original ROCIS implementation
   Masaaki Saitow         : Open-shell DLPNO-CCSD energy and density
   Barbara Sandhoefer     : DKH picture change effects
   Avijit Sen             : IP-ROCIS
   Kantharuban Sivalingam : CASSCF convergence, NEVPT2, FIC-MRCI
   Bernardo de Souza      : ESD, SOC TD-DFT
   Georgi Stoychev        : AutoAux, RI-MP2 NMR
   Willem Van den Heuvel  : Paramagnetic NMR
   Boris Wezisla          : Elementary symmetry handling
   Frank Wennmohs         : Technical directorship


 We gratefully acknowledge several colleagues who have allowed us to
 interface, adapt or use parts of their codes:
   Stefan Grimme, W. Hujo, H. Kruse,             : VdW corrections, initial TS optimization,
                  C. Bannwarth                     DFT functionals, gCP, sTDA/sTD-DF
   Ed Valeev, F. Pavosevic, A. Kumar             : LibInt (2-el integral package), F12 methods
   Garnet Chan, S. Sharma, J. Yang, R. Olivares  : DMRG
   Ulf Ekstrom                                   : XCFun DFT Library
   Mihaly Kallay                                 : mrcc  (arbitrary order and MRCC methods)
   Andreas Klamt, Michael Diedenhofen            : otool_cosmo (COSMO solvation model)
   Jiri Pittner, Ondrej Demel                    : Mk-CCSD
   Frank Weinhold                                : gennbo (NPA and NBO analysis)
   Christopher J. Cramer and Donald G. Truhlar   : smd solvation model
   Lars Goerigk                                  : TD-DFT with DH, B97 family of functionals
   V. Asgeirsson, H. Jonsson                     : NEB implementation
   FAccTs GmbH                                   : IRC, NEB, NEB-TS, Multilevel, MM, QM/MM, CI optimization
   S Lehtola, MJT Oliveira, MAL Marques          : LibXC Library


 Your calculation uses the libint2 library for the computation of 2-el integrals
 For citations please refer to: http://libint.valeyev.net

 Your ORCA version has been built with support for libXC version: 4.2.3
 For citations please refer to: https://tddft.org/programs/libxc/

 This ORCA versions uses:
   CBLAS   interface :  Fast vector & matrix operations
   LAPACKE interface :  Fast linear algebra routines
   SCALAPACK package :  Parallel linear algebra routines




***************************************
The coordinates will be read from file: mta.xyz
***************************************


----- Orbital basis set information -----
Your calculation utilizes the basis: def2-SVP
   F. Weigend and R. Ahlrichs, Phys. Chem. Chem. Phys. 7, 3297 (2005).

================================================================================
                                        WARNINGS
                       Please study these warnings very carefully!
================================================================================


WARNING: Analytical and numerical frequencies both set to true
  ===> : Disabling Anfreq

WARNING: The environment variable RSH_COMMAND is not set!
  ===> : All Displacements for the Numerical Hessian calculation
         will be started on localhost

WARNING: Geometry Optimization
  ===> : Switching off AutoStart
         For restart on a previous wavefunction, please use MOREAD

INFO   : the flag for use of LIBINT has been found!

================================================================================
                                       INPUT FILE
================================================================================
NAME = geo_opt.inp
|  1> ! RHF b3lyp def2-SVP LARGEPRINT PRINTBASIS PRINTGAP TightSCF ALLPOP Opt AnFreq NumFreq bohrs 
|  2> 
|  3> %pal nprocs 16
|  4> end
|  5> 
|  6> #%elprop Dipole true
|  7> #        Quadrupole true
|  8> #        Polar 1
|  9> #end
| 10> 
| 11> %geom
| 12>   MaxIter 100
| 13> end
| 14> 
| 15> * xyzfile 0 1 mta.xyz
| 16> 
| 17>                          ****END OF INPUT****
================================================================================

                       *****************************
                       * Geometry Optimization Run *
                       *****************************

Geometry optimization settings:
Update method            Update   .... BFGS
Choice of coordinates    CoordSys .... Z-matrix Internals
Initial Hessian          InHess   .... Almoef's Model

Convergence Tolerances:
Energy Change            TolE     ....  5.0000e-06 Eh
Max. Gradient            TolMAXG  ....  3.0000e-04 Eh/bohr
RMS Gradient             TolRMSG  ....  1.0000e-04 Eh/bohr
Max. Displacement        TolMAXD  ....  4.0000e-03 bohr
RMS Displacement         TolRMSD  ....  2.0000e-03 bohr
Strict Convergence                ....  False
------------------------------------------------------------------------------
                        ORCA OPTIMIZATION COORDINATE SETUP
------------------------------------------------------------------------------

The optimization will be done in new redundant internal coordinates
Making redundant internal coordinates   ...  (new redundants) done
Evaluating the initial hessian          ...  (Almloef) done
Evaluating the coordinates              ...  done
Calculating the B-matrix                .... done
Calculating the G-matrix                .... done
Diagonalizing the G-matrix              .... done
The first mode is                       ....   91
The number of degrees of freedom        ....   15

    -----------------------------------------------------------------
                    Redundant Internal Coordinates


    -----------------------------------------------------------------
         Definition                    Initial Value    Approx d2E/dq
    -----------------------------------------------------------------
      1. B(C   1,N   0)                  0.7751         5.356791   
      2. B(H   2,C   1)                  0.5769         2.371178   
      3. B(H   2,N   0)                  1.1090         0.300804   
      4. B(H   3,C   1)                  0.5769         2.371421   
      5. B(H   3,N   0)                  1.1089         0.300840   
      6. B(H   4,C   1)                  0.5769         2.371898   
      7. B(H   4,N   0)                  1.1165         0.292617   
      8. B(H   5,C   1)                  1.0714         0.385583   
      9. B(H   5,N   0)                  0.5410         2.423248   
     10. B(H   6,C   1)                  1.0714         0.385571   
     11. B(H   6,N   0)                  0.5411         2.422776   
     12. A(H   3,N   0,H   4)           50.0199         0.269614   
     13. A(H   5,N   0,H   6)          107.1230         0.556314   
     14. A(H   3,N   0,H   6)          137.0230         0.380429   
     15. A(C   1,N   0,H   6)          107.6502         0.737822   
     16. A(H   2,N   0,H   4)           50.0209         0.269609   
     17. A(H   3,N   0,H   5)           92.8497         0.380442   
     18. A(H   4,N   0,H   6)           91.0397         0.378607   
     19. A(C   1,N   0,H   4)           28.9469         0.491110   
     20. A(H   2,N   0,H   6)           92.8456         0.380421   
     21. A(C   1,N   0,H   3)           29.3994         0.493640   
     22. A(C   1,N   0,H   5)          107.6548         0.737851   
     23. A(H   2,N   0,H   3)           50.1562         0.270746   
     24. A(H   2,N   0,H   5)          137.0278         0.380434   
     25. A(H   4,N   0,H   5)           91.0428         0.378620   
     26. A(C   1,N   0,H   2)           29.3997         0.493629   
     27. A(H   2,C   1,H   3)          109.1181         0.562750   
     28. A(H   3,C   1,H   4)          109.2688         0.562782   
     29. A(H   2,C   1,H   4)          109.2703         0.562771   
     30. A(N   0,C   1,H   4)          110.4871         0.742326   
     31. A(N   0,C   1,H   3)          109.3368         0.742296   
     32. A(H   4,C   1,H   5)           93.7390         0.403068   
     33. A(H   3,C   1,H   5)           94.7062         0.403054   
     34. A(H   2,C   1,H   5)          138.0760         0.403046   
     35. A(N   0,C   1,H   5)           28.7639         0.522067   
     36. A(H   5,C   1,H   6)           47.9423         0.297183   
     37. A(H   4,C   1,H   6)           93.7379         0.403066   
     38. A(H   3,C   1,H   6)          138.0779         0.403051   
     39. A(N   0,C   1,H   2)          109.3386         0.742281   
     40. A(N   0,C   1,H   6)           28.7675         0.522064   
     41. A(H   2,C   1,H   6)           94.7059         0.403044   
     42. A(N   0,H   2,C   1)           41.2617         0.382424   
     43. A(N   0,H   3,C   1)           41.2638         0.382439   
     44. A(N   0,H   4,C   1)           40.5660         0.380617   
     45. A(N   0,H   5,C   1)           43.5813         0.400916   
     46. A(N   0,H   6,C   1)           43.5822         0.400900   
     47. D(H   5,C   1,N   0,H   4)     57.5901         9.901637   
     48. D(H   6,C   1,N   0,H   5)   -115.1829         9.901637   
     49. D(H   6,C   1,N   0,H   2)     62.7053         9.901637   
     50. D(H   3,C   1,N   0,H   4)    120.2951         9.901637   
     51. D(H   4,C   1,N   0,H   6)     57.5929         9.901637   
     52. D(H   3,C   1,N   0,H   6)    177.8880         9.901637   
     53. D(H   4,C   1,N   0,H   2)    120.2981         9.901637   
     54. D(H   6,C   1,N   0,H   4)    -57.5929         9.901637   
     55. D(H   2,C   1,N   0,H   6)    -62.7053         9.901637   
     56. D(H   5,C   1,N   0,H   3)    -62.7051         9.901637   
     57. D(H   3,C   1,N   0,H   5)     62.7051         9.901637   
     58. D(H   3,C   1,N   0,H   2)   -119.4067         9.901637   
     59. D(H   2,C   1,N   0,H   4)   -120.2981         9.901637   
     60. D(H   5,C   1,N   0,H   6)    115.1829         9.901637   
     61. D(H   4,C   1,N   0,H   5)    -57.5901         9.901637   
     62. D(H   6,C   1,N   0,H   3)   -177.8880         9.901637   
     63. D(H   2,C   1,N   0,H   3)    119.4067         9.901637   
     64. D(H   2,C   1,N   0,H   5)   -177.8882         9.901637   
     65. D(H   5,C   1,N   0,H   2)    177.8882         9.901637   
     66. D(H   4,C   1,N   0,H   3)   -120.2951         9.901637   
     67. D(N   0,H   2,C   1,H   6)    -25.4117        28.542304   
     68. D(N   0,H   2,C   1,H   4)   -121.0400        28.542304   
     69. D(N   0,H   2,C   1,H   3)    119.5417        28.542304   
     70. D(C   1,H   2,N   0,H   6)    122.0191         0.114799   
     71. D(C   1,H   2,N   0,H   5)      2.9528         0.114799   
     72. D(N   0,H   2,C   1,H   5)     -1.5208        28.542304   
     73. D(C   1,H   2,N   0,H   4)     33.0486         0.114799   
     74. D(C   1,H   2,N   0,H   3)    -33.8473         0.114799   
     75. D(C   1,H   3,N   0,H   5)   -122.0213         0.114833   
     76. D(C   1,H   3,N   0,H   4)    -33.0503         0.114833   
     77. D(C   1,H   3,N   0,H   2)     33.8476         0.114833   
     78. D(N   0,H   3,C   1,H   6)      1.5211        28.552112   
     79. D(N   0,H   3,C   1,H   5)     25.4086        28.552112   
     80. D(N   0,H   3,C   1,H   4)    121.0380        28.552112   
     81. D(N   0,H   3,C   1,H   2)   -119.5428        28.552112   
     82. D(C   1,H   3,N   0,H   6)     -2.9529         0.114833   
     83. D(N   0,H   4,C   1,H   6)     24.0274        28.571355   
     84. D(N   0,H   4,C   1,H   3)   -120.3359        28.571355   
     85. D(N   0,H   4,C   1,H   2)    120.3390        28.571355   
     86. D(C   1,H   4,N   0,H   6)   -126.4235         0.107409   
     87. D(C   1,H   4,N   0,H   5)    126.4278         0.107409   
     88. D(N   0,H   4,C   1,H   5)    -24.0236        28.571355   
     89. D(C   1,H   4,N   0,H   3)     33.5831         0.107409   
     90. D(C   1,H   4,N   0,H   2)    -33.5817         0.107409   
     91. D(N   0,H   5,C   1,H   6)     35.9144         0.168894   
     92. D(N   0,H   5,C   1,H   4)    127.5779         0.168894   
     93. D(N   0,H   5,C   1,H   3)   -122.7156         0.168894   
     94. D(N   0,H   5,C   1,H   2)      2.9831         0.168894   
     95. D(C   1,H   5,N   0,H   6)   -115.5313        42.602879   
     96. D(C   1,H   5,N   0,H   4)    -24.1217        42.602879   
     97. D(C   1,H   5,N   0,H   3)     25.8985        42.602879   
     98. D(C   1,H   5,N   0,H   2)     -1.5207        42.602879   
     99. D(N   0,H   6,C   1,H   5)    -35.9096         0.168881   
    100. D(N   0,H   6,C   1,H   3)     -2.9835         0.168881   
    101. D(N   0,H   6,C   1,H   2)    122.7164         0.168881   
    102. D(C   1,H   6,N   0,H   5)    115.5343        42.574019   
    103. D(C   1,H   6,N   0,H   4)     24.1225        42.574019   
    104. D(N   0,H   6,C   1,H   4)   -127.5757         0.168881   
    105. D(C   1,H   6,N   0,H   3)      1.5207        42.574019   
    106. D(C   1,H   6,N   0,H   2)    -25.8987        42.574019   
    -----------------------------------------------------------------

Number of atoms                         .... 7
Number of degrees of freedom            .... 106

         *************************************************************
         *                GEOMETRY OPTIMIZATION CYCLE   1            *
         *************************************************************
---------------------------------
CARTESIAN COORDINATES (ANGSTROEM)
---------------------------------
  N      0.478006    0.043075    0.074667
  C     -0.296974    0.036196    0.062707
  H     -0.492876    0.578867    0.062549
  H     -0.492876   -0.235272    0.532564
  H     -0.489224   -0.235748   -0.408313
  H      0.646972   -0.470544    0.055564
  H      0.646972    0.283374   -0.379738

----------------------------
CARTESIAN COORDINATES (A.U.)
----------------------------
  NO LB      ZA    FRAG     MASS         X           Y           Z
   0 N     7.0000    0    14.007    0.903300    0.081400    0.141100
   1 C     6.0000    0    12.011   -0.561200    0.068400    0.118500
   2 H     1.0000    0     1.008   -0.931400    1.093900    0.118200
   3 H     1.0000    0     1.008   -0.931400   -0.444600    1.006400
   4 H     1.0000    0     1.008   -0.924500   -0.445500   -0.771600
   5 H     1.0000    0     1.008    1.222600   -0.889200    0.105000
   6 H     1.0000    0     1.008    1.222600    0.535500   -0.717600

--------------------------------
INTERNAL COORDINATES (ANGSTROEM)
--------------------------------
 N      0   0   0     0.000000000000     0.00000000     0.00000000
 C      1   0   0     0.775102822853     0.00000000     0.00000000
 H      2   1   0     0.576948390624   109.33858666     0.00000000
 H      2   1   3     0.576920498653   109.33678982   240.59325402
 H      2   1   3     0.576865807741   110.48707892   120.29812755
 H      1   2   3     0.541035513633   107.65482123   182.11181144
 H      1   2   3     0.541088544747   107.65023742   297.29473391

---------------------------
INTERNAL COORDINATES (A.U.)
---------------------------
 N      0   0   0     0.000000000000     0.00000000     0.00000000
 C      1   0   0     1.464732060822     0.00000000     0.00000000
 H      2   1   0     1.090274451686   109.33858666     0.00000000
 H      2   1   3     1.090221743500   109.33678982   240.59325402
 H      2   1   3     1.090118392653   110.48707892   120.29812755
 H      1   2   3     1.022408949491   107.65482123   182.11181144
 H      1   2   3     1.022509163773   107.65023742   297.29473391

---------------------
BASIS SET INFORMATION
---------------------
There are 3 groups of distinct atoms

 Group   1 Type N   : 7s4p1d contracted to 3s2p1d pattern {511/31/1}
 Group   2 Type C   : 7s4p1d contracted to 3s2p1d pattern {511/31/1}
 Group   3 Type H   : 4s1p contracted to 2s1p pattern {31/1}

Atom   0N    basis set group =>   1
Atom   1C    basis set group =>   2
Atom   2H    basis set group =>   3
Atom   3H    basis set group =>   3
Atom   4H    basis set group =>   3
Atom   5H    basis set group =>   3
Atom   6H    basis set group =>   3

-------------------------
BASIS SET IN INPUT FORMAT
-------------------------

 # Basis set for element : H 
 NewGTO H 
 S 3 
   1      13.0107010000      0.0334854848
   2       1.9622572000      0.2347218709
   3       0.4445379600      0.8137702853
 S 1 
   1       0.1219496200      1.0000000000
 P 1 
   1       0.8000000000      1.0000000000
  end;

 # Basis set for element : C 
 NewGTO C 
 S 5 
   1    1238.4016938000      0.0055173650
   2     186.2900499200      0.0410888285
   3      42.2511763460      0.1822538213
   4      11.6765579320      0.4682845944
   5       3.5930506482      0.4457581734
 S 1 
   1       0.4024514736      1.0000000000
 S 1 
   1       0.1309018267      1.0000000000
 P 3 
   1       9.4680970621      0.0568883320
   2       2.0103545142      0.3129405934
   3       0.5477100471      0.7606501651
 P 1 
   1       0.1526861379      1.0000000000
 D 1 
   1       0.8000000000      1.0000000000
  end;

 # Basis set for element : N 
 NewGTO N 
 S 5 
   1    1712.8415853000     -0.0054477995
   2     257.6481267700     -0.0406271746
   3      58.4582458530     -0.1811196225
   4      16.1983679050     -0.4684397556
   5       5.0052600809     -0.4461684629
 S 1 
   1       0.5873185657      1.0000000000
 S 1 
   1       0.1876459225      1.0000000000
 P 3 
   1      13.5714702330     -0.0588481170
   2       2.9257372874     -0.3202462476
   3       0.7992775075     -0.7532822652
 P 1 
   1       0.2195434803      1.0000000000
 D 1 
   1       1.0000000000      1.0000000000
  end;



           ************************************************************
           *        Program running with 16 parallel MPI-processes    *
           *              working on a common directory               *
           ************************************************************
------------------------------------------------------------------------------
                           ORCA GTO INTEGRAL CALCULATION
------------------------------------------------------------------------------

                         BASIS SET STATISTICS AND STARTUP INFO

 # of primitive gaussian shells          ...   49
 # of primitive gaussian functions       ...   83
 # of contracted shells                  ...   27
 # of contracted basis functions         ...   53
 Highest angular momentum                ...    2
 Maximum contraction depth               ...    5
 Integral package used                   ... LIBINT
 Integral threshhold            Thresh   ...  2.500e-11
 Primitive cut-off              TCut     ...  2.500e-12


------------------------------ INTEGRAL EVALUATION ----------------------------


 * One electron integrals 
 Pre-screening matrix                    ... done
 Shell pair data                         ... done (   0.000 sec)



           ************************************************************
           *        Program running with 16 parallel MPI-processes    *
           *              working on a common directory               *
           ************************************************************
-------------------------------------------------------------------------------
                                 ORCA SCF
-------------------------------------------------------------------------------

------------
SCF SETTINGS
------------
Hamiltonian:
 Density Functional     Method          .... DFT(GTOs)
 Exchange Functional    Exchange        .... B88
   X-Alpha parameter    XAlpha          ....  0.666667
   Becke's b parameter  XBeta           ....  0.004200
 Correlation Functional Correlation     .... LYP
 LDA part of GGA corr.  LDAOpt          .... VWN-5
 Gradients option       PostSCFGGA      .... off
 Hybrid DFT is turned on
   Fraction HF Exchange ScalHFX         ....  0.200000
   Scaling of DF-GGA-X  ScalDFX         ....  0.720000
   Scaling of DF-GGA-C  ScalDFC         ....  0.810000
   Scaling of DF-LDA-C  ScalLDAC        ....  1.000000
   Perturbative correction              ....  0.000000
   Density functional embedding theory  .... OFF
   NL short-range parameter             ....  4.800000


General Settings:
 Integral files         IntName         .... geo_opt
 Hartree-Fock type      HFTyp           .... RHF
 Total Charge           Charge          ....    0
 Multiplicity           Mult            ....    1
 Number of Electrons    NEL             ....   18
 Basis Dimension        Dim             ....   53
 Nuclear Repulsion      ENuc            ....     79.4697480365 Eh

Convergence Acceleration:
 DIIS                   CNVDIIS         .... on
   Start iteration      DIISMaxIt       ....    12
   Startup error        DIISStart       ....  0.200000
   # of expansion vecs  DIISMaxEq       ....     5
   Bias factor          DIISBfac        ....   1.050
   Max. coefficient     DIISMaxC        ....  10.000
 Newton-Raphson         CNVNR           .... off
 SOSCF                  CNVSOSCF        .... on
   Start iteration      SOSCFMaxIt      ....   150
   Startup grad/error   SOSCFStart      ....  0.003300
 Level Shifting         CNVShift        .... on
   Level shift para.    LevelShift      ....    0.2500
   Turn off err/grad.   ShiftErr        ....    0.0010
 Zerner damping         CNVZerner       .... off
 Static damping         CNVDamp         .... on
   Fraction old density DampFac         ....    0.7000
   Max. Damping (<1)    DampMax         ....    0.9800
   Min. Damping (>=0)   DampMin         ....    0.0000
   Turn off err/grad.   DampErr         ....    0.1000
 Fernandez-Rico         CNVRico         .... off

SCF Procedure:
 Maximum # iterations   MaxIter         ....   125
 SCF integral mode      SCFMode         .... Direct
   Integral package                     .... LIBINT
 Reset frequency        DirectResetFreq ....    20
 Integral Threshold     Thresh          ....  2.500e-11 Eh
 Primitive CutOff       TCut            ....  2.500e-12 Eh

Convergence Tolerance:
 Convergence Check Mode ConvCheckMode   .... Total+1el-Energy
 Convergence forced     ConvForced      .... 0
 Energy Change          TolE            ....  1.000e-08 Eh
 1-El. energy change                    ....  1.000e-05 Eh
 Orbital Gradient       TolG            ....  1.000e-05
 Orbital Rotation angle TolX            ....  1.000e-05
 DIIS Error             TolErr          ....  5.000e-07


Diagonalization of the overlap matrix:
Smallest eigenvalue                        ... 4.373e-04
Time for diagonalization                   ...    0.036 sec
Threshold for overlap eigenvalues          ... 1.000e-08
Number of eigenvalues below threshold      ... 0
Time for construction of square roots      ...    0.054 sec
Total time needed                          ...    0.090 sec

-------------------
DFT GRID GENERATION
-------------------

General Integration Accuracy     IntAcc      ...  4.340
Radial Grid Type                 RadialGrid  ... Gauss-Chebyshev
Angular Grid (max. acc.)         AngularGrid ... Lebedev-110
Angular grid pruning method      GridPruning ... 3 (G Style)
Weight generation scheme         WeightScheme... Becke
Basis function cutoff            BFCut       ...    1.0000e-11
Integration weight cutoff        WCut        ...    1.0000e-14
Grids for H and He will be reduced by one unit

# of grid points (after initial pruning)     ...   7328 (   0.0 sec)
# of grid points (after weights+screening)   ...   6900 (   0.0 sec)
nearest neighbour list constructed           ...    0.0 sec
Grid point re-assignment to atoms done       ...    0.0 sec
Grid point division into batches done        ...    0.0 sec
Reduced shell lists constructed in    0.0 sec

Total number of grid points                  ...     6900
Total number of batches                      ...      112
Average number of points per batch           ...       61
Average number of grid points per atom       ...      986
Average number of shells per batch           ...    23.38 (86.57%)
Average number of basis functions per batch  ...    46.12 (87.03%)
Average number of large shells per batch     ...    23.00 (98.40%)
Average number of large basis fcns per batch ...    45.50 (98.64%)
Maximum spatial batch extension              ...  11.02, 12.00, 14.96 au
Average spatial batch extension              ...   0.19,  0.19,  0.21 au

Time for grid setup =    0.219 sec

------------------------------
INITIAL GUESS: MODEL POTENTIAL
------------------------------
Loading Hartree-Fock densities                     ... done
Calculating cut-offs                               ... done
Setting up the integral package                    ... done
Initializing the effective Hamiltonian             ... done
Starting the Coulomb interaction                   ... done (   0.0 sec)
Reading the grid                                   ... done
Mapping shells                                     ... done
Starting the XC term evaluation                    ... done (   0.0 sec)
  promolecular density results
     # of electrons  =     17.993878090
     EX              =    -14.269738997
     EC              =     -0.627955859
     EX+EC           =    -14.897694856
Transforming the Hamiltonian                       ... done (   0.0 sec)
Diagonalizing the Hamiltonian                      ... done (   0.0 sec)
Back transforming the eigenvectors                 ... done (   0.0 sec)
Now organizing SCF variables                       ... done
                      ------------------
                      INITIAL GUESS DONE (   0.4 sec)
                      ------------------
----------------------
INITIAL GUESS ORBITALS
----------------------
                      0         1         2         3         4         5   
                 -15.15812 -11.12890  -1.93410  -1.51570  -1.44211  -1.25052
                   2.00000   2.00000   2.00000   2.00000   2.00000   2.00000
                  --------  --------  --------  --------  --------  --------
  0N   1s        -0.986119 -0.014387  0.305385 -0.000353 -0.036185 -0.093325
  0N   2s         0.030826 -0.003515  0.147764 -0.001658  0.048324  0.312411
  0N   3s        -0.038674 -0.009052 -0.427343  0.001783  0.396977  0.293296
  0N   1pz        0.006312  0.000095  0.134474 -0.310072 -0.405024  0.043511
  0N   1px        0.013282 -0.011004  0.324263 -0.000229  0.414963 -0.140348
  0N   1py        0.003640  0.000065  0.077371  0.536445 -0.234419  0.025357
  0N   2pz        0.001668 -0.002235  0.095472 -0.058646 -0.040390 -0.035980
  0N   2px       -0.000240  0.004548  0.006678 -0.000397 -0.029188 -0.045223
  0N   2py        0.000966 -0.001289  0.055136  0.101233 -0.023604 -0.020617
  0N   1dz2      -0.001306  0.002937 -0.012273 -0.064088 -0.056525  0.012488
  0N   1dxz       0.001668 -0.001364  0.047339 -0.031474 -0.008631 -0.033777
  0N   1dyz       0.001356 -0.000179  0.010426  0.042911 -0.031247  0.001951
  0N   1dx2y2     0.003828 -0.005296  0.033586 -0.036871  0.061780 -0.019059
  0N   1dxy       0.000955 -0.000788  0.027118  0.054384 -0.005023 -0.019022
  1C   1s         0.003499 -0.981976 -0.275952 -0.000093 -0.175780 -0.228036
  1C   2s        -0.025096  0.061316  0.028495  0.000098 -0.203475 -0.492662
  1C   3s         0.039034  0.044282  0.108681 -0.002009 -0.356096 -0.850256
  1C   1pz        0.001156  0.000160 -0.043834  0.246466  0.395032 -0.134246
  1C   1px       -0.000500 -0.020137  0.431774  0.000176  0.122246 -0.671668
  1C   1py        0.000661  0.000079 -0.026585 -0.427654  0.228037 -0.076653
  1C   2pz       -0.000437  0.001111 -0.025782 -0.014231 -0.071583  0.057515
  1C   2px        0.004845  0.000073  0.038974  0.000088 -0.005497 -0.021160
  1C   2py       -0.000252  0.000633 -0.015104  0.024235 -0.040793  0.032740
  1C   1dz2      -0.001826  0.002936 -0.036337  0.008959 -0.000134  0.038295
  1C   1dxz       0.005740 -0.000447  0.041350 -0.021230 -0.021944 -0.022058
  1C   1dyz      -0.001304  0.000688 -0.015075 -0.006161 -0.008407  0.016920
  1C   1dx2y2     0.001665 -0.004300  0.045807  0.004978 -0.008445 -0.048864
  1C   1dxy       0.003311 -0.000230  0.023495  0.037665 -0.013332 -0.011692
  2H   1s         0.006773 -0.035131  0.193288 -0.062426  0.205218  0.431458
  2H   2s        -0.007784 -0.009207 -0.018211 -0.044338  0.147906  0.156130
  2H   1pz        0.001446 -0.000403  0.019340 -0.024158 -0.039638 -0.001234
  2H   1px       -0.002870 -0.002462 -0.026468 -0.028263 -0.003248  0.081902
  2H   1py       -0.000870  0.010828 -0.035113  0.033921 -0.046623 -0.060332
  3H   1s         0.006766 -0.035172  0.193274  0.062463  0.205147  0.430557
  3H   2s        -0.007783 -0.009217 -0.018537  0.045499  0.149272  0.155109
  3H   1pz       -0.000031  0.009193 -0.021016 -0.017260 -0.060471 -0.052121
  3H   1px       -0.002870 -0.002455 -0.026550  0.028099 -0.003401  0.082981
  3H   1py        0.001686 -0.005764  0.034551  0.038369 -0.011191  0.029067
  4H   1s         0.003209 -0.035528  0.182886  0.000001  0.067478  0.510854
  4H   2s        -0.009216 -0.007360 -0.032688  0.000374 -0.055750  0.269957
  4H   1pz       -0.001427 -0.009086  0.017834 -0.025161 -0.017068  0.084967
  4H   1px        0.000758 -0.002896  0.003410  0.000133 -0.039591  0.076334
  4H   1py       -0.000826 -0.005236  0.010281  0.043928 -0.010220  0.049442
  5H   1s         0.009303 -0.002742  0.313436  0.167716 -0.208912 -0.125982
  5H   2s         0.005105 -0.002170  0.067064  0.136078 -0.071751  0.015755
  5H   1pz        0.002604  0.000337  0.011312 -0.002567 -0.032113  0.001746
  5H   1px       -0.002261 -0.001479  0.002915  0.019083  0.010596 -0.037266
  5H   1py        0.006236  0.000161  0.069727  0.043072 -0.031009 -0.046842
  6H   1s         0.009300 -0.002740  0.313440 -0.167777 -0.207948 -0.127245
  6H   2s         0.005098 -0.002168  0.067160 -0.136579 -0.071294  0.015525
  6H   1pz        0.006700  0.000309  0.066214 -0.035704 -0.042825 -0.039984
  6H   1px       -0.002258 -0.001471  0.002716 -0.019093  0.010488 -0.037069
  6H   1py       -0.000861  0.000208 -0.024867  0.023898 -0.012644  0.025114
                      6         7         8         9        10        11   
                  -1.19071  -0.88041  -0.63554  -0.03205   0.01104   0.02910
                   2.00000   2.00000   2.00000   0.00000   0.00000   0.00000
                  --------  --------  --------  --------  --------  --------
  0N   1s        -0.135994 -0.000088  0.083249  0.083759  0.001934 -0.031168
  0N   2s        -0.094157 -0.000683  0.277786  0.302009  0.016149  0.083899
  0N   3s         0.605290 -0.002603  0.270607 -0.585943 -0.049586 -1.102019
  0N   1pz        0.073038 -0.261464 -0.635398  0.028981  0.103672 -0.100402
  0N   1px        0.557467  0.001940 -0.219814 -0.067048 -0.000167  0.053198
  0N   1py        0.040566  0.455100 -0.366477  0.023115 -0.189512 -0.043654
  0N   2pz       -0.063527  0.009089  0.181450  0.014073 -0.094065 -0.217044
  0N   2px       -0.202604  0.000771  0.033400  0.533750  0.015425  0.014852
  0N   2py       -0.036432 -0.015638  0.102792 -0.022427  0.131804 -0.119811
  0N   1dz2      -0.019394 -0.035267 -0.026164 -0.000122  0.015957 -0.004497
  0N   1dxz       0.051567 -0.019835 -0.047890 -0.007684  0.029115 -0.022063
  0N   1dyz       0.003575  0.023710 -0.041424  0.005394 -0.010805  0.005948
  0N   1dx2y2     0.038321 -0.020330 -0.003208  0.005704  0.010026  0.010692
  0N   1dxy       0.029546  0.034954 -0.027760 -0.002184 -0.053850 -0.008670
  1C   1s        -0.077124 -0.000161  0.018669 -0.095346 -0.004458 -0.049577
  1C   2s        -0.137865 -0.000009  0.040124  0.064440 -0.002416 -0.114769
  1C   3s        -0.623084  0.004872 -0.143739  5.718049  0.264564  3.496670
  1C   1pz       -0.431307 -0.346562 -0.409574 -0.058611 -0.124572  0.263863
  1C   1px        0.249614  0.001023  0.025047 -0.116536 -0.006923 -0.101899
  1C   1py       -0.250705  0.600868 -0.235347 -0.039837  0.253973  0.129763
  1C   2pz        0.057692  0.068487  0.005475 -0.065850 -0.202739  0.780682
  1C   2px       -0.124123 -0.000032 -0.024312  0.049633 -0.001792  0.012458
  1C   2py        0.033128 -0.117358  0.002880 -0.005069  0.481681  0.394584
  1C   1dz2       0.003291 -0.009263  0.014775 -0.009501  0.012983  0.032200
  1C   1dxz      -0.019551 -0.029563  0.015318  0.004779 -0.004558  0.022230
  1C   1dyz       0.002454  0.006273  0.029001  0.004546 -0.003637  0.035008
  1C   1dx2y2    -0.003610 -0.004724  0.007839  0.025003  0.006856 -0.018049
  1C   1dxy      -0.011420  0.050581  0.009022  0.003809  0.012120  0.011117
  2H   1s        -0.095535  0.408096 -0.232614  0.105031 -0.045071  0.067506
  2H   2s         0.044768  0.141763 -0.039355 -1.653504 -1.789299 -2.478278
  2H   1pz        0.036727  0.017752  0.012967  0.005984  0.022917 -0.030131
  2H   1px       -0.046346  0.000081  0.002210  0.033295  0.013872  0.028805
  2H   1py        0.034782 -0.118875  0.055589 -0.037984 -0.042948 -0.047061
  3H   1s        -0.094075 -0.407602 -0.234147  0.104569  0.056511  0.057444
  3H   2s         0.044017 -0.145319 -0.041016 -1.605683  1.404845 -2.730628
  3H   1pz        0.048120  0.093929  0.054561 -0.029328  0.016606 -0.059493
  3H   1px       -0.046520  0.000105  0.001826  0.033260 -0.010154  0.030016
  3H   1py        0.014988 -0.075228 -0.016365  0.024574 -0.041925  0.002610
  4H   1s         0.222904  0.000086  0.369846  0.111465  0.005981  0.113956
  4H   2s         0.151858  0.000303  0.133445 -1.909352  0.117856  1.288453
  4H   1pz        0.074147  0.018412  0.078093  0.046854  0.024016 -0.030690
  4H   1px       -0.031103  0.000195  0.010829  0.031500  0.001038  0.016215
  4H   1py        0.043131 -0.032493  0.045250  0.028017 -0.044795 -0.015070
  5H   1s        -0.334287  0.386624 -0.103785  0.027385  0.094485 -0.026299
  5H   2s         0.000530 -0.069257  0.017042 -0.821600  1.338459  0.463213
  5H   1pz       -0.002650 -0.003179  0.003605  0.018270  0.009783 -0.031654
  5H   1px        0.073894 -0.027661  0.010078 -0.025928 -0.015848  0.003702
  5H   1py       -0.044801  0.079228 -0.017307  0.026633 -0.039424 -0.020763
  6H   1s        -0.333136 -0.386529 -0.104025  0.034820 -0.095070 -0.016701
  6H   2s        -0.000161  0.069005  0.018569 -0.704263 -1.349172  0.577800
  6H   1pz       -0.039804 -0.067069 -0.013635  0.029106  0.026774 -0.035980
  6H   1px        0.074019  0.028057  0.010299 -0.026612  0.014261  0.002181
  6H   1py        0.020126  0.042330  0.012225  0.005780 -0.031204 -0.014976
                     12        13        14        15        16        17   
                   0.05853   0.11738   0.13382   0.22751   0.26956   0.40710
                   0.00000   0.00000   0.00000   0.00000   0.00000   0.00000
                  --------  --------  --------  --------  --------  --------
  0N   1s         0.083695 -0.002129  0.043731  0.005028  0.001126  0.000511
  0N   2s        -0.129537  0.014795 -0.026522  0.080245 -0.001079 -0.224415
  0N   3s         2.920145 -0.461258  3.840704  0.344468  0.047192  3.821810
  0N   1pz       -0.038578  0.112379 -0.018714 -0.125383 -0.043445 -0.453697
  0N   1px       -0.037792 -0.027155  0.241432 -0.037990  0.001679 -0.072866
  0N   1py       -0.016003 -0.185455 -0.039251 -0.070161  0.071245 -0.266698
  0N   2pz       -0.219691 -0.546122  0.161669  0.531017 -0.533635 -1.478975
  0N   2px       -0.230230  0.110650 -0.816697 -0.519672 -0.004794 -1.239136
  0N   2py       -0.135226  0.902006  0.208292  0.320173  0.888031 -0.868540
  0N   1dz2       0.000207 -0.024155 -0.047921 -0.038310 -0.041830  0.036925
  0N   1dxz      -0.006148  0.020771  0.019255 -0.036365  0.008573 -0.024489
  0N   1dyz       0.015862  0.021254 -0.014940 -0.070966  0.029556  0.039657
  0N   1dx2y2     0.017245 -0.022777  0.055945 -0.016373 -0.023367 -0.018443
  0N   1dxy      -0.001577 -0.040692  0.005132 -0.021633 -0.014004 -0.015169
  1C   1s         0.031519  0.005511 -0.065633  0.020578 -0.001475  0.026255
  1C   2s        -0.029494  0.032876 -0.098985 -0.315176  0.006084 -0.770289
  1C   3s        -5.484266  0.789716 -6.805577 -0.672526 -0.111507 -4.982908
  1C   1pz        0.181562  0.103747 -0.052984  0.151797 -0.139157  0.051178
  1C   1px        0.122907 -0.007351  0.070518 -0.075225  0.000704  0.008535
  1C   1py        0.097372 -0.166903 -0.057329  0.091027  0.233432  0.031035
  1C   2pz        0.655332  1.116670 -0.217801 -3.023983  1.565579  0.593117
  1C   2px       -0.820419  0.342800 -3.074750 -0.191552 -0.021212 -0.889598
  1C   2py        0.386963 -1.891991 -0.343846 -1.778426 -2.612231  0.356391
  1C   1dz2      -0.015640 -0.089447 -0.081088 -0.051551 -0.068919  0.041089
  1C   1dxz       0.046764  0.037091 -0.003582 -0.026427  0.008206  0.105090
  1C   1dyz       0.036141  0.065562 -0.019586 -0.104327  0.048869  0.047569
  1C   1dx2y2     0.070666 -0.064396  0.088087 -0.031756 -0.038982 -0.017978
  1C   1dxy       0.027514 -0.063534 -0.011319 -0.015721 -0.013280  0.060403
  2H   1s        -0.091114  0.070281  0.004070  0.178208  0.289241 -0.119616
  2H   2s         0.358355  4.127853  1.308673  2.387073  1.937631  1.261405
  2H   1pz       -0.008415  0.016713  0.001556 -0.088616  0.049197  0.087809
  2H   1px       -0.040973  0.009983 -0.041252  0.020802  0.031942 -0.027987
  2H   1py       -0.018108  0.086407 -0.007098  0.054940  0.062444 -0.046013
  3H   1s        -0.094034 -0.072102 -0.007049  0.169572 -0.292338 -0.111083
  3H   2s         0.348917 -4.303807  0.507075  2.373127 -1.951563  1.265889
  3H   1pz       -0.019701 -0.078486 -0.021561  0.001832 -0.079810  0.005280
  3H   1px       -0.039145 -0.001779 -0.041393  0.019710 -0.033427 -0.028037
  3H   1py        0.002660  0.027068  0.008752 -0.105340 -0.009179  0.099283
  4H   1s        -0.028313 -0.003687  0.010902 -0.400638  0.004779  0.280106
  4H   2s         3.951581  0.055119 -0.828908 -4.597517  0.070329 -0.160394
  4H   1pz       -0.047937  0.017735  0.036869  0.111698  0.051499 -0.018978
  4H   1px       -0.045132  0.003879 -0.039044 -0.041152 -0.001104  0.027449
  4H   1py       -0.026693 -0.035900  0.015083  0.062782 -0.090880 -0.009580
  5H   1s         0.082799  0.105414  0.016702  0.186140  0.257319 -0.125740
  5H   2s        -0.780832  1.968016  1.784161  0.023603 -1.588559 -0.044148
  5H   1pz       -0.000672 -0.013384 -0.006944  0.077487 -0.029513  0.012555
  5H   1px       -0.012413 -0.010727  0.056248 -0.020401 -0.035624  0.054264
  5H   1py        0.064929 -0.110506  0.006107 -0.048478 -0.081453  0.054536
  6H   1s         0.087234 -0.104728 -0.001561  0.180513 -0.261832 -0.123649
  6H   2s        -0.716159 -2.328593  1.303517  0.072067  1.604610 -0.052042
  6H   1pz        0.053698  0.100687  0.023694 -0.001041  0.088327  0.054546
  6H   1px       -0.012500 -0.001270  0.056698 -0.018038  0.036842  0.053008
  6H   1py       -0.031452 -0.038817 -0.017943  0.089768 -0.016906 -0.017335
                     18        19        20        21        22        23   
                   0.44669   0.47911   0.51792   0.61195   0.65402   0.69114
                   0.00000   0.00000   0.00000   0.00000   0.00000   0.00000
                  --------  --------  --------  --------  --------  --------
  0N   1s         0.040305 -0.001426 -0.058927 -0.068785  0.004035  0.122572
  0N   2s        -0.035170 -0.009485 -0.409336 -0.447083  0.047601  1.337213
  0N   3s         3.469360 -0.011902 -4.252303  0.431704 -0.331067 -9.503457
  0N   1pz        0.010760  0.149949  0.017495 -0.237076 -0.046218 -0.255522
  0N   1px       -0.111924  0.003369  0.048306 -0.071330 -0.000832 -0.135699
  0N   1py        0.010412 -0.255153  0.015947 -0.137374  0.076423  0.371318
  0N   2pz        0.083468  0.832476 -0.236878 -1.285414 -0.635263 -0.791586
  0N   2px       -1.012448  0.041073  3.426487  1.208350  0.067937  1.835291
  0N   2py        0.053524 -1.437186 -0.108391 -0.745631  1.086949  1.184186
  0N   1dz2      -0.013595  0.035425 -0.022111 -0.057292 -0.043008  0.065206
  0N   1dxz       0.007911  0.006150 -0.006888 -0.036006  0.046129 -0.083232
  0N   1dyz      -0.005179 -0.024316  0.045024 -0.034403  0.027246 -0.067841
  0N   1dx2y2     0.019405  0.022115  0.088953  0.060348 -0.023661  0.101759
  0N   1dxy       0.006674 -0.012140 -0.003333 -0.020316 -0.081537  0.097035
  1C   1s        -0.163315 -0.000669 -0.067558 -0.016016 -0.000505 -0.032620
  1C   2s         1.556449  0.018173  1.780424  0.512096  0.031452  1.146505
  1C   3s       -21.081284  0.062380  8.647647  1.008000  0.488279 12.885673
  1C   1pz       -0.012641 -0.271293  0.331780 -0.461979 -0.088087 -0.174351
  1C   1px       -0.270872  0.003273  0.375632  0.182067  0.006046  0.255919
  1C   1py       -0.006116  0.484155  0.184036 -0.268465  0.145532  0.178986
  1C   2pz       -0.086132  1.086566 -1.748012  2.460717  0.059345  1.456573
  1C   2px        0.575073  0.021213  2.506758  0.592821  0.069707  2.018403
  1C   2py       -0.054238 -1.941432 -0.977629  1.420278 -0.044964 -1.586937
  1C   1dz2       0.004790  0.061338  0.056139 -0.020286  0.056872  0.096415
  1C   1dxz       0.005840 -0.080122  0.050223 -0.156706 -0.070710 -0.036834
  1C   1dyz      -0.004814 -0.040457  0.050411 -0.145435 -0.038245 -0.069461
  1C   1dx2y2    -0.009308  0.034551 -0.042684 -0.132335  0.031907  0.013150
  1C   1dxy       0.005929  0.138222  0.026146 -0.091617  0.121639  0.069961
  2H   1s         0.196503 -0.096348  0.103770  0.338434 -0.722713 -0.094844
  2H   2s         5.611879  3.338296  0.700237 -1.918855  0.409669  0.181676
  2H   1pz       -0.002119 -0.052238  0.041642 -0.168786 -0.056259 -0.081822
  2H   1px       -0.019589 -0.040196  0.000180  0.055819  0.218799 -0.117131
  2H   1py        0.037389 -0.061996  0.054014  0.142730 -0.084983 -0.038882
  3H   1s         0.200067  0.098436  0.105711  0.335319  0.720341 -0.007655
  3H   2s         5.595439 -3.310045  0.787103 -1.919875 -0.620794 -5.098816
  3H   1pz        0.033419  0.079647  0.066252  0.037812  0.103069  0.139406
  3H   1px       -0.020255  0.038447 -0.002917  0.055340 -0.218068  0.110869
  3H   1py       -0.018795  0.013611  0.008970 -0.215041  0.002399 -0.014831
  4H   1s         0.189719  0.000707  0.072048 -0.397721 -0.000004  0.019447
  4H   2s         5.318412 -0.030049 -3.433007  4.508461 -0.053378 -1.864367
  4H   1pz       -0.027768 -0.058474 -0.106301  0.117145 -0.049390 -0.092827
  4H   1px       -0.022019 -0.000336  0.083223 -0.015311 -0.003958 -0.062619
  4H   1py       -0.013156  0.097498 -0.061645  0.067407  0.086724  0.131015
  5H   1s         0.013499 -0.163421 -0.294449 -0.188501  0.738724 -0.043654
  5H   2s         0.451196 -2.317146 -1.911009 -1.080877  0.914858  1.695029
  5H   1pz        0.002533  0.021043 -0.087915  0.200799 -0.043603  0.149143
  5H   1px        0.038401  0.037751 -0.006415 -0.069616  0.211529  0.073001
  5H   1py        0.052967  0.110958  0.068981  0.010101 -0.116581  0.102797
  6H   1s         0.012987  0.154209 -0.301191 -0.184412 -0.730973  0.182726
  6H   2s         0.436781  2.264202 -1.971785 -1.077029 -0.905266 -1.155411
  6H   1pz        0.042480 -0.107902  0.018027  0.107323  0.121041 -0.185641
  6H   1px        0.035325 -0.040715 -0.008565 -0.070581 -0.207885  0.076399
  6H   1py       -0.024116  0.034575 -0.109454  0.167701 -0.014650  0.024079
                     24        25        26        27        28        29   
                   0.69707   0.76434   0.91827   1.09545   1.10255   1.56802
                   0.00000   0.00000   0.00000   0.00000   0.00000   0.00000
                  --------  --------  --------  --------  --------  --------
  0N   1s        -0.134547  0.036056  0.137677  0.002046  0.038211 -0.001539
  0N   2s        -1.468967  0.357129  0.697826 -0.003312 -0.170620 -0.001274
  0N   3s        10.414497 -5.551497 -1.110612  0.113498  2.853292  0.030440
  0N   1pz       -0.175285 -0.120856 -0.296940 -0.152655 -0.031264 -0.165455
  0N   1px        0.167358  0.635282 -0.002132  0.005149  0.128222  0.008207
  0N   1py        0.370186 -0.080688 -0.172654  0.260184 -0.029939  0.287334
  0N   2pz       -0.591809 -0.593757  0.091368  0.278940  0.033271  0.697762
  0N   2px       -1.974896  2.357015  0.194408 -0.046081 -1.079843 -0.027015
  0N   2py        1.188282 -0.383593  0.046781 -0.480274  0.043030 -1.177320
  0N   1dz2       0.117911  0.009688  0.052507  0.035052  0.054965 -0.101846
  0N   1dxz      -0.032154 -0.062601  0.244250  0.039659 -0.047261  0.049100
  0N   1dyz      -0.050659 -0.029570  0.090121 -0.021948  0.005079  0.068675
  0N   1dx2y2    -0.006035 -0.057027  0.011666  0.015672 -0.092819 -0.055825
  0N   1dxy       0.106061 -0.038442  0.139700 -0.070720 -0.021876 -0.084161
  1C   1s         0.035597 -0.061618 -0.015442  0.000465  0.003350 -0.000301
  1C   2s        -1.262597  0.922518 -0.245750 -0.031824 -0.650332 -0.014017
  1C   3s       -13.963266  8.437857  2.703163 -0.106309 -3.069744 -0.100571
  1C   1pz       -0.051486  0.028755 -0.131915  0.001904 -0.061847 -0.338079
  1C   1px       -0.297154 -0.444566 -0.229874  0.001644  0.035379  0.008364
  1C   1py        0.223985  0.008407 -0.076755 -0.009020 -0.034966  0.562728
  1C   2pz        0.513249  0.763827 -0.841626 -0.087366  0.143854 -1.057359
  1C   2px       -2.185783  3.047676  0.663631 -0.022772 -0.514219 -0.003795
  1C   2py       -1.886095  0.507500 -0.473962  0.156348  0.068441  1.770734
  1C   1dz2       0.061244 -0.166132 -0.061338  0.116946  0.001739 -0.188279
  1C   1dxz      -0.038403 -0.001646  0.037191 -0.103587  0.245062  0.050732
  1C   1dyz      -0.039356 -0.038576 -0.017192 -0.071872  0.132254  0.137228
  1C   1dx2y2     0.091295  0.236199  0.081521  0.071559  0.135443 -0.105792
  1C   1dxy       0.061147 -0.000880  0.022598  0.202462  0.131102 -0.089274
  2H   1s        -0.011613 -0.303924  0.153413  0.353942  0.137735 -0.457987
  2H   2s         5.055385 -1.156937  0.013496 -0.131723  0.251085 -1.089856
  2H   1pz       -0.047548 -0.018928  0.085912  0.232101 -0.384075 -0.001146
  2H   1px       -0.092608 -0.060149 -0.342349  0.277610  0.041948  0.442753
  2H   1py       -0.128992 -0.101861 -0.082909  0.208517  0.045087 -0.472233
  3H   1s         0.104593 -0.314498  0.156851 -0.341600  0.165084  0.480723
  3H   2s         0.277775 -1.000930  0.036997  0.146305  0.224746  1.151702
  3H   1pz        0.058645 -0.102252 -0.025627 -0.307089 -0.127737  0.424587
  3H   1px        0.094727 -0.059460 -0.338992 -0.274743  0.062879 -0.451068
  3H   1py        0.055177  0.032095  0.115396 -0.123206 -0.341756 -0.236113
  4H   1s        -0.025691 -0.049821 -0.765508 -0.018807 -0.443737 -0.004754
  4H   2s         2.031237  0.668891 -1.211875  0.018104  0.754673 -0.002732
  4H   1pz       -0.054836  0.078455  0.083902  0.214417  0.232705  0.242030
  4H   1px        0.066993 -0.234253  0.478172 -0.010610 -0.232646 -0.001632
  4H   1py        0.133152  0.040441  0.048904 -0.347480  0.152724 -0.394825
  5H   1s        -0.155244  0.253454 -0.349008 -0.325467 -0.328694 -0.483825
  5H   2s         0.990126 -1.548713 -0.161227 -0.143112  0.120041  0.421982
  5H   1pz        0.056667  0.096245 -0.205599  0.217287 -0.491720 -0.262451
  5H   1px       -0.082282 -0.028399 -0.101539  0.260222  0.216432 -0.570700
  5H   1py        0.153079 -0.150929  0.063797  0.382211  0.151052  0.274983
  6H   1s         0.009918  0.252523 -0.351404  0.295673 -0.351823  0.497626
  6H   2s        -1.667215 -1.481011 -0.148449  0.155803  0.109407 -0.411684
  6H   1pz       -0.142565 -0.077140 -0.046244 -0.446991 -0.079773 -0.110063
  6H   1px       -0.088364 -0.027834 -0.101414 -0.243194  0.234253  0.595274
  6H   1py       -0.076656  0.158751 -0.207916 -0.038820 -0.495481  0.372940
                     30        31        32        33        34        35   
                   1.60468   1.65392   1.69445   1.73374   1.94177   1.98939
                   0.00000   0.00000   0.00000   0.00000   0.00000   0.00000
                  --------  --------  --------  --------  --------  --------
  0N   1s        -0.039030  0.162812  0.000881 -0.075626  0.091380  0.000040
  0N   2s        -0.433839 -1.164276 -0.021564  2.762722  0.101929 -0.001766
  0N   3s         3.246619  2.773222  0.081594-11.179430 -4.734318 -0.035726
  0N   1pz        0.007750  0.030758  0.087263 -0.442937  0.075190 -0.048715
  0N   1px        0.433760  0.040268  0.000959 -0.138256 -0.139170 -0.003484
  0N   1py       -0.000057  0.020953 -0.142692 -0.255425  0.041621  0.078457
  0N   2pz        0.767370 -0.661709 -0.154611  0.859373 -0.617802 -0.228460
  0N   2px       -1.638549  0.058735 -0.022027  3.537544  2.807315  0.016498
  0N   2py        0.467164 -0.396507  0.250245  0.486975 -0.356044  0.401445
  0N   1dz2       0.003270  0.107594 -0.181026  0.082017  0.230560 -0.085278
  0N   1dxz       0.074731  0.101388 -0.003992 -0.164466 -0.007431  0.002282
  0N   1dyz       0.002873 -0.038097  0.122608 -0.088458  0.057465  0.054379
  0N   1dx2y2     0.001605 -0.236236 -0.102961 -0.250822 -0.334285 -0.053913
  0N   1dxy       0.045705  0.056538  0.007879 -0.092943 -0.005299 -0.009250
  1C   1s         0.167893  0.328349 -0.000813  0.115312  0.065918  0.000657
  1C   2s         0.361578  1.215006 -0.022104  2.509627  1.085107  0.020671
  1C   3s       -10.200287 -7.430797 -0.075416 11.681407  9.918660  0.039514
  1C   1pz       -0.445932  0.340783 -0.057815  0.023188 -0.310223 -0.170986
  1C   1px        0.397040 -0.239300  0.000825 -0.258245 -0.646017 -0.004546
  1C   1py       -0.268931  0.202648  0.095512  0.013908 -0.181599  0.290117
  1C   2pz       -1.423422  0.909617 -0.241872  0.092396 -0.735579 -0.336708
  1C   2px       -0.354632  0.139977 -0.012302  1.956276  1.478134  0.006792
  1C   2py       -0.864441  0.546476  0.416970  0.059915 -0.427549  0.579149
  1C   1dz2      -0.031184 -0.414630 -0.109812  0.272584  0.136684 -0.288648
  1C   1dxz       0.058917  0.034700  0.029943  0.031704  0.157529 -0.044474
  1C   1dyz       0.288558 -0.258642  0.071816  0.024338  0.431191  0.189500
  1C   1dx2y2     0.396199  0.423348 -0.058063 -0.445638  0.260919 -0.160951
  1C   1dxy       0.038288  0.019338 -0.048926  0.020532  0.094444  0.075572
  2H   1s         0.536759  0.101301 -0.229299 -0.054750  0.139371 -0.090001
  2H   2s         2.771466  1.300990 -0.273134 -1.941254 -1.066541 -0.497819
  2H   1pz        0.241532 -0.136787  0.792575 -0.132395  0.349712  0.348491
  2H   1px       -0.381261 -0.020073  0.086247 -0.094044  0.624736 -0.665992
  2H   1py        0.591502  0.278823 -0.164085  0.191825  0.520400 -0.783632
  3H   1s         0.520278  0.104914  0.235334 -0.055627  0.137456  0.087585
  3H   2s         2.726769  1.325367  0.297187 -1.931692 -1.066900  0.488141
  3H   1pz        0.619287  0.176796 -0.253591  0.093568  0.627363  0.512073
  3H   1px       -0.363873 -0.028342 -0.082511 -0.099701  0.627597  0.677651
  3H   1py       -0.079560 -0.261125 -0.765209 -0.219507  0.053399 -0.694606
  4H   1s        -0.134388  0.461855 -0.001727  0.090566 -0.473662  0.000192
  4H   2s         0.626279  2.502226  0.010099 -1.223950 -2.271812 -0.005400
  4H   1pz        0.154004 -0.808866 -0.380425 -0.220593  0.678716  0.153176
  4H   1px       -0.089910 -0.131964 -0.001475  0.289121 -0.019421  0.005155
  4H   1py        0.098900 -0.473561  0.667407 -0.119007  0.391060 -0.267268
  5H   1s         0.301928 -0.132082 -0.159110  0.364800 -0.228882  0.323411
  5H   2s         0.363277 -0.141661  0.493843 -0.000109 -1.004097  0.603654
  5H   1pz        0.032175  0.053573  0.549271 -0.535747  0.219130 -0.171146
  5H   1px        0.635234 -0.249008 -0.203466 -0.312752 -0.438137  0.452220
  5H   1py       -0.130217  0.386165 -0.202037 -0.778735  0.194300  0.328738
  6H   1s         0.287073 -0.120327  0.152002  0.370554 -0.227840 -0.324069
  6H   2s         0.379910 -0.149011 -0.499278  0.007554 -0.998193 -0.607300
  6H   1pz       -0.093880  0.360004 -0.084068 -0.945100  0.278165 -0.202172
  6H   1px        0.615270 -0.235322  0.205877 -0.306168 -0.433229 -0.453550
  6H   1py        0.083636 -0.142627 -0.576526 -0.077781  0.084817  0.308441
                     36        37        38        39        40        41   
                   2.15370   2.16943   2.29191   2.33229   2.47960   2.53834
                   0.00000   0.00000   0.00000   0.00000   0.00000   0.00000
                  --------  --------  --------  --------  --------  --------
  0N   1s         0.001837  0.028643 -0.001129  0.020359 -0.000188  0.003218
  0N   2s        -0.024380 -0.707759  0.009636  0.066832 -0.053681  2.067040
  0N   3s        -0.082101 -2.762640  0.014335  0.566060  0.138598 -3.978386
  0N   1pz       -0.216008  0.246538  0.124465 -0.569337 -0.068806 -0.060935
  0N   1px        0.008502  0.218757 -0.002731  0.081018 -0.012095  0.481476
  0N   1py        0.383122  0.121868 -0.181221 -0.343379  0.117130 -0.029898
  0N   2pz        0.817354  0.087483 -0.029169  0.946925  0.190363  0.003870
  0N   2px        0.028306  0.952116  0.005155 -0.647977 -0.018881  0.219311
  0N   2py       -1.399424  0.114614 -0.021563  0.561281 -0.313926 -0.009123
  0N   1dz2      -0.052899  0.214851 -0.530484 -0.233592 -0.540269  0.303126
  0N   1dxz      -0.112788 -0.361233 -0.087788 -0.128820  0.292159  0.480201
  0N   1dyz       0.027521 -0.077676  0.378467 -0.608275  0.334590  0.329404
  0N   1dx2y2    -0.054828 -0.471805 -0.295998 -0.343508 -0.303375 -0.183176
  0N   1dxy       0.166703 -0.212260  0.175112 -0.062833 -0.536890  0.256448
  1C   1s        -0.000261 -0.002554  0.001209 -0.027491  0.000211 -0.030459
  1C   2s        -0.011284  0.045479  0.018471 -0.663335  0.031330 -1.806104
  1C   3s         0.243383  6.498365 -0.071868 -0.097943 -0.199355  6.453866
  1C   1pz        0.137533  0.118315  0.488638 -0.868122 -0.041245  0.107827
  1C   1px       -0.023798 -0.569087  0.014248 -0.240136  0.025396 -0.849443
  1C   1py       -0.245569  0.066899 -0.783801 -0.532247  0.053383  0.068810
  1C   2pz        0.426726 -0.016030  0.834551 -1.396863  0.221605  0.492060
  1C   2px        0.002120  0.246213  0.013019 -0.621771 -0.009610 -0.017186
  1C   2py       -0.768768 -0.000181 -1.336586 -0.853907 -0.438606  0.270369
  1C   1dz2      -0.056879 -0.119406 -0.974510 -0.921159  0.081508 -0.156487
  1C   1dxz      -0.008203  0.382599  0.136008 -0.139207 -0.703781 -0.932619
  1C   1dyz       0.033526  0.326740  0.710036 -1.261698 -0.068805  0.279852
  1C   1dx2y2    -0.005599  0.550534 -0.587674  0.052272  0.027499  0.606264
  1C   1dxy       0.041727  0.215306 -0.247789 -0.104462  1.281397 -0.486015
  2H   1s         0.286400  0.257574 -0.332708 -0.168765  0.161215  0.643346
  2H   2s         0.888248 -1.499717  1.967755  0.768114  0.374568 -1.718876
  2H   1pz        0.237321 -0.351163 -0.893719  1.143987 -0.224845 -0.509110
  2H   1px        0.237682  0.243701  0.128241  0.354356 -1.000830  1.174158
  2H   1py        0.350622 -0.050328 -0.021990  0.029037  0.307573 -0.055091
  3H   1s        -0.268741  0.287469  0.338808 -0.145777 -0.193309  0.635004
  3H   2s        -0.988374 -1.488763 -1.984348  0.660189 -0.265083 -1.729851
  3H   1pz       -0.425049 -0.182244  0.425704  0.631661 -0.134892 -0.315025
  3H   1px       -0.210539  0.252341 -0.149479  0.328521  0.932461  1.234386
  3H   1py       -0.031336 -0.254729  0.700422  1.020373  0.384684 -0.394963
  4H   1s        -0.002293 -0.222298 -0.025476  0.836154 -0.009608  0.525642
  4H   2s        -0.061090 -1.017819  0.085751 -2.356234  0.016659 -1.156053
  4H   1pz       -0.470311 -0.142944 -0.516569 -0.019516 -0.190445 -0.273826
  4H   1px        0.056375  1.534624 -0.037601  0.491090  0.007795 -0.123865
  4H   1py        0.808369 -0.104467  0.894824  0.010748  0.348069 -0.145669
  5H   1s        -0.271750  0.219355 -0.499603 -0.211638 -0.062754 -0.113975
  5H   2s        -1.309990 -0.114948 -0.088129  0.430500 -0.195962  0.425928
  5H   1pz       -0.992833  0.329840  0.569374 -0.690877  0.063474  0.045391
  5H   1px        0.323987  0.261534  0.565416  0.418821 -0.767700  0.747402
  5H   1py        0.667196  0.289385  0.421153  0.074867  0.454505 -0.345666
  6H   1s         0.275453  0.212706  0.506402 -0.182835  0.058702 -0.116376
  6H   2s         1.301521 -0.197124  0.070263  0.417591  0.179776  0.438771
  6H   1pz       -0.053816  0.405980 -0.640492 -0.317100 -0.414672 -0.296271
  6H   1px       -0.300404  0.268087 -0.589156  0.380018  0.732840  0.794840
  6H   1py        1.187122  0.050145 -0.242444 -0.677528  0.146672  0.223100
                     42        43        44        45        46        47   
                   2.74347   2.86616   3.09198   3.16270   3.29410   3.55453
                   0.00000   0.00000   0.00000   0.00000   0.00000   0.00000
                  --------  --------  --------  --------  --------  --------
  0N   1s         0.036073 -0.000331 -0.012162 -0.053438  0.000223  0.162178
  0N   2s        -0.932819 -0.008458 -0.658459 -2.264487  0.007160  3.175114
  0N   3s        -1.080643 -0.004787  2.162795 -2.236986  0.036346  4.478404
  0N   1pz       -0.345316  0.044104 -0.924531 -0.529015 -0.659351 -0.527371
  0N   1px       -1.022250  0.001440  0.089790 -1.017320  0.007462  1.307941
  0N   1py       -0.199065 -0.076158 -0.537116 -0.296249  1.140872 -0.305218
  0N   2pz        0.483307 -0.544788  0.054501 -0.432755 -0.263843 -0.319457
  0N   2px        0.422672  0.003392 -0.607511  1.467973 -0.014979 -1.355042
  0N   2py        0.284142  0.942208  0.035963 -0.253953  0.462137 -0.183198
  0N   1dz2      -0.573603  0.910818 -0.450317  0.594304  0.206366 -0.316093
  0N   1dxz      -0.154955  0.468993 -0.061484 -1.159511 -0.919252 -1.168914
  0N   1dyz      -0.152219 -0.598721 -1.228716  0.822612 -0.149020  0.434838
  0N   1dx2y2     0.827166  0.520902 -0.630656 -0.086695  0.121539  1.048760
  0N   1dxy      -0.092733 -0.819476 -0.045807 -0.655513  1.605400 -0.676030
  1C   1s        -0.135179  0.000669  0.024253 -0.022255  0.000386  0.089348
  1C   2s         0.481589  0.026079  0.504531  6.373518 -0.034943 -9.288542
  1C   3s        -0.427461 -0.008052 -2.474705  1.035932 -0.033326 -2.339606
  1C   1pz        0.355026  0.507551  0.529688 -0.744795 -0.114477 -0.299318
  1C   1px       -0.574842  0.002780  0.473068  0.886500 -0.004172 -1.675750
  1C   1py        0.198908 -0.895737  0.303690 -0.422601  0.206904 -0.172456
  1C   2pz        0.355104  0.080402  0.193429  0.476163  0.432659  0.648827
  1C   2px       -0.088297  0.003303 -0.306497  1.103884 -0.010972 -1.271596
  1C   2py        0.198724 -0.144368  0.117975  0.270778 -0.755220  0.373124
  1C   1dz2      -0.557592 -1.385213  1.049505 -0.200556 -1.241841  0.621391
  1C   1dxz      -0.046650 -0.054096 -1.364497 -1.778696 -1.432641 -1.264090
  1C   1dyz       0.549908  0.911739  1.766988  0.131534  0.834790  0.293785
  1C   1dx2y2     1.578011 -0.804311  0.227206  0.494185 -0.723925 -0.738024
  1C   1dxy      -0.023220  0.091777 -0.801083 -1.006722  2.493496 -0.731567
  2H   1s         0.333894 -0.804046 -0.209167 -1.422816  0.520428  1.370839
  2H   2s        -0.318981  0.327957  0.200046  0.106065  0.660706 -0.478521
  2H   1pz       -0.424794 -0.540395 -1.327622 -0.215542 -0.657457 -0.269109
  2H   1px        0.709925 -0.277963  0.144559  0.435205 -1.086787  0.115432
  2H   1py        0.483771 -0.131161  0.083881  0.367262 -0.643786 -0.091587
  3H   1s         0.340855  0.788258 -0.198133 -1.430307 -0.507768  1.374688
  3H   2s        -0.331725 -0.316022  0.207820  0.103802 -0.653877 -0.481925
  3H   1pz        0.210163  0.390741 -0.596454  0.213489  0.880025 -0.215302
  3H   1px        0.713142  0.273284  0.137485  0.447120  1.080977  0.116569
  3H   1py       -0.601983  0.415262 -1.193360 -0.368052  0.246455 -0.185954
  4H   1s         0.515321 -0.004727 -0.505798 -0.896698  0.000030  2.357123
  4H   2s         0.873519 -0.000689  0.829279  0.866244 -0.000521  0.653935
  4H   1pz       -0.174419 -0.718846  0.440665 -0.035243 -0.606367  0.618697
  4H   1px        0.773332 -0.003010 -1.077557 -1.014215  0.000465 -0.721823
  4H   1py       -0.090552  1.240348  0.251632 -0.016851  1.051007  0.357437
  5H   1s         0.539291  0.409877 -0.275633 -0.102108  0.484381  0.030089
  5H   2s         0.170193  0.771817  0.037992 -0.488877 -0.204763  0.139414
  5H   1pz       -0.291904 -0.419777 -0.709170  0.705963  0.162764  0.418315
  5H   1px       -0.608378 -0.423306  0.180441 -0.038365  0.491789 -0.886360
  5H   1py       -0.524418 -0.326283  0.347835  0.017066 -0.221698  0.053224
  6H   1s         0.536378 -0.406675 -0.267902 -0.104906 -0.483128  0.030614
  6H   2s         0.165698 -0.773990  0.026612 -0.477609  0.211049  0.136786
  6H   1pz       -0.597775  0.500316 -0.045497  0.364588  0.109015  0.254839
  6H   1px       -0.604974  0.426540  0.185682 -0.043447 -0.491615 -0.887423
  6H   1py        0.010247  0.203940 -0.791411  0.601662 -0.264022  0.336615
                     48        49        50        51        52   
                   4.49085   5.24348   5.34142   5.46098   5.64539
                   0.00000   0.00000   0.00000   0.00000   0.00000
                  --------  --------  --------  --------  --------
  0N   1s         0.034053 -0.030246  0.001054  0.000199 -0.175559
  0N   2s         2.187545 -0.759043  0.048584  0.004961-10.973078
  0N   3s        -2.521241  0.189275  0.002848  0.013726 -2.405831
  0N   1pz        0.030414 -0.092532 -0.106116  1.201993 -1.344945
  0N   1px        1.162428  0.023611 -0.002854 -0.001227  0.834095
  0N   1py        0.014418 -0.058950  0.196468 -2.080661 -0.777852
  0N   2pz        0.154936  0.024328  0.353544 -0.869302  1.126019
  0N   2px        0.290139 -0.469824  0.009270 -0.000897 -0.459804
  0N   2py        0.089040  0.008544 -0.623214  1.502537  0.647147
  0N   1dz2      -0.415903  0.296634 -0.233605  0.786956  0.231880
  0N   1dxz       0.058395 -0.045716  0.164360 -0.796527  0.764386
  0N   1dyz      -0.053054  0.362163  0.144466 -0.528097  0.793913
  0N   1dx2y2     0.658575 -0.098136 -0.131701  0.454011  0.511895
  0N   1dxy       0.034557 -0.024947 -0.290603  1.378902  0.441000
  1C   1s         0.005518 -0.004302  0.000173  0.000199 -0.035553
  1C   2s         8.201417  0.511611 -0.015870 -0.011778  1.904276
  1C   3s         0.884714 -1.149169  0.029104 -0.008167 -1.289720
  1C   1pz        0.086833  3.060628  1.758600 -0.047595  0.029095
  1C   1px       -3.067159  0.298331 -0.006735  0.001871  0.457347
  1C   1py        0.050914  1.700951 -3.157334  0.057616  0.004022
  1C   2pz       -0.002070  0.293389  0.056872  0.228915 -0.134497
  1C   2px        0.436954 -0.271907  0.004809 -0.001568 -0.191766
  1C   2py        0.000141  0.164247 -0.104876 -0.398906 -0.080023
  1C   1dz2       0.562086 -0.732919  1.331896 -0.442019 -0.278069
  1C   1dxz       0.017677 -0.780153 -0.331754 -0.705112  0.808412
  1C   1dyz      -0.021467 -1.378881 -0.854919  0.304089 -0.360934
  1C   1dx2y2    -0.995938 -0.266726  0.765908 -0.255087  0.081066
  1C   1dxy       0.010498 -0.429884  0.592828  1.224682  0.470397
  2H   1s        -3.692661 -2.991684  5.350914  0.696761  0.100250
  2H   2s         0.110850  0.285775 -0.574537 -0.008421  0.135928
  2H   1pz        0.000169  0.459282  0.293183 -0.253217  0.315604
  2H   1px       -0.336703 -0.266010  0.653000 -0.237801  0.021390
  2H   1py        0.914725  1.006962 -1.741033 -0.483340 -0.169346
  3H   1s        -3.693802 -3.165380 -5.253419 -0.667213  0.063899
  3H   2s         0.113833  0.303483  0.559866  0.009892  0.136625
  3H   1pz        0.791885  1.149371  1.324142  0.534179  0.019131
  3H   1px       -0.337633 -0.283345 -0.642796  0.240135  0.017872
  3H   1py       -0.457850 -0.140820 -1.124958 -0.023267  0.350468
  4H   1s        -3.458038  5.976180 -0.092469 -0.019400 -0.608328
  4H   2s         0.069818 -0.258965  0.002293  0.002010  0.444227
  4H   1pz       -0.743593  1.837272  0.279421 -0.287803 -0.327569
  4H   1px       -0.250846  0.647168 -0.011778 -0.003417  0.329781
  4H   1py       -0.429814  1.053321 -0.548199  0.485670 -0.191701
  5H   1s         0.014206  0.242257 -0.579837  5.766559  6.282485
  5H   2s         0.228487  0.290993 -0.706994  0.170663  0.385746
  5H   1pz       -0.073731  0.245315  0.010260 -0.087794  0.309697
  5H   1px        0.006880  0.295055 -0.344810 -0.392712 -0.630748
  5H   1py       -0.074823  0.119771 -0.134123  2.089374  1.929426
  6H   1s         0.005211  0.216515  0.531443 -5.775961  6.278621
  6H   2s         0.229713  0.313010  0.694939 -0.173603  0.391309
  6H   1pz       -0.105859  0.215892  0.092708 -1.768630  1.823055
  6H   1px        0.008817  0.308607  0.339701  0.391299 -0.627879
  6H   1py       -0.024179  0.158435 -0.075349  1.119322 -0.694740
--------------
SCF ITERATIONS
--------------
               ***  Starting incremental Fock matrix formation  ***

  HOMO=   8 E=  6.847 eV LUMO= 10.583 eV gap=   3.736 eV

                         ----------------------------
                         !        ITERATION     0   !
                         ----------------------------
   Total Energy        :     -90.233065892189 Eh
   Energy Change       :     -90.233065892189 Eh
   MAX-DP              :       0.657946979863
   RMS-DP              :       0.032298286892
   Actual Damping      :       0.7000
   Actual Level Shift  :       0.2500 Eh
   Int. Num. El.       :    17.99468723 (UP=    8.99734362 DN=    8.99734362)
   Exchange            :   -13.35184813
   Correlation         :    -0.79288300


  HOMO=   8 E=  0.870 eV LUMO=  9.659 eV gap=   8.789 eV

                         ----------------------------
                         !        ITERATION     1   !
                         ----------------------------
   Total Energy        :     -90.677647753323 Eh
   Energy Change       :      -0.444581861134 Eh
   MAX-DP              :       0.421332042648
   RMS-DP              :       0.021236167295
   Actual Damping      :       0.7000
   Actual Level Shift  :       0.2500 Eh
   Int. Num. El.       :    17.99654694 (UP=    8.99827347 DN=    8.99827347)
   Exchange            :   -12.83937144
   Correlation         :    -0.77810289

                               ***Turning on DIIS***

  HOMO=   8 E= -2.102 eV LUMO=  8.967 eV gap=  11.069 eV

                         ----------------------------
                         !        ITERATION     2   !
                         ----------------------------
   Total Energy        :     -90.863076296570 Eh
   Energy Change       :      -0.185428543247 Eh
   MAX-DP              :       0.223355702039
   RMS-DP              :       0.010560478478
   Actual Damping      :       0.7000
   Actual Level Shift  :       0.2500 Eh
   Int. Num. El.       :    17.99741602 (UP=    8.99870801 DN=    8.99870801)
   Exchange            :   -12.55250881
   Correlation         :    -0.76826449
   DIIS-Error          :       0.106056464526


  HOMO=   8 E= -3.941 eV LUMO=  8.651 eV gap=  12.592 eV

                         ----------------------------
                         !        ITERATION     3   !
                         ----------------------------
   Total Energy        :     -90.974944916954 Eh
   Energy Change       :      -0.111868620384 Eh
   MAX-DP              :       0.360902428945
   RMS-DP              :       0.017971651983
   Actual Damping      :       0.0000
   Actual Level Shift  :       0.2500 Eh
   Int. Num. El.       :    17.99750075 (UP=    8.99875037 DN=    8.99875037)
   Exchange            :   -12.44839730
   Correlation         :    -0.76447050
   DIIS-Error          :       0.048934868761
   DIIS coefficients:
     -0.53006   1.53006


  HOMO=   8 E= -3.629 eV LUMO=  8.796 eV gap=  12.425 eV

                         ----------------------------
                         !        ITERATION     4   !
                         ----------------------------
   Total Energy        :     -91.238790636554 Eh
   Energy Change       :      -0.263845719600 Eh
   MAX-DP              :       0.105963502963
   RMS-DP              :       0.005157578879
   Actual Damping      :       0.0000
   Actual Level Shift  :       0.2500 Eh
   Int. Num. El.       :    17.99693074 (UP=    8.99846537 DN=    8.99846537)
   Exchange            :   -12.40627490
   Correlation         :    -0.76276009
   DIIS-Error          :       0.012722566578
   DIIS coefficients:
      0.04076   0.06232   0.89692


  HOMO=   8 E= -3.429 eV LUMO=  8.878 eV gap=  12.307 eV

                         ----------------------------
                         !        ITERATION     5   !
                         ----------------------------
   Total Energy        :     -91.239766850226 Eh
   Energy Change       :      -0.000976213672 Eh
   MAX-DP              :       0.051532730245
   RMS-DP              :       0.002870791671
   Actual Damping      :       0.0000
   Actual Level Shift  :       0.2500 Eh
   Int. Num. El.       :    17.99686297 (UP=    8.99843149 DN=    8.99843149)
   Exchange            :   -12.43227433
   Correlation         :    -0.76377989
   DIIS-Error          :       0.003712376036
   DIIS coefficients:
     -0.02915   0.00163  -0.01381   1.04133

                      *** Initiating the SOSCF procedure ***
                           *** Shutting down DIIS ***
                      *** Re-Reading the Fockian *** 
                      *** Removing any level shift *** 

  HOMO=   8 E= -3.383 eV LUMO=  2.089 eV gap=   5.472 eV

                         ----------------------------
                         !        ITERATION     6   !
                         ----------------------------
   Total Energy        :     -91.239900498109 Eh
   Energy Change       :      -0.000133647884 Eh
   MAX-DP              :       0.029781904742
   RMS-DP              :       0.001786113338
   Orbital gradient    :       0.002134349821
   Orbital Rotation    :       0.002134349821
   Actual Damping      :       0.0000
   Int. Num. El.       :    17.99689089 (UP=    8.99844545 DN=    8.99844545)
   Exchange            :   -12.43138526
   Correlation         :    -0.76379140

               *** Restarting incremental Fock matrix formation ***

  HOMO=   8 E= -3.383 eV LUMO=  2.089 eV gap=   5.472 eV

                         ----------------------------
                         !        ITERATION     7   !
                         ----------------------------
   Total Energy        :     -91.239941867962 Eh
   Energy Change       :      -0.000041369852 Eh
   MAX-DP              :       0.044862587226
   RMS-DP              :       0.002432437627
   Orbital gradient    :       0.001325681430
   Orbital Rotation    :       0.006591837074
   Actual Damping      :       0.0000
   Int. Num. El.       :    17.99691092 (UP=    8.99845546 DN=    8.99845546)
   Exchange            :   -12.43097560
   Correlation         :    -0.76380312


  HOMO=   8 E= -3.383 eV LUMO=  2.089 eV gap=   5.472 eV

                         ----------------------------
                         !        ITERATION     8   !
                         ----------------------------
   Total Energy        :     -91.239963631834 Eh
   Energy Change       :      -0.000021763872 Eh
   MAX-DP              :       0.015957210329
   RMS-DP              :       0.000856807384
   Orbital gradient    :       0.000342912036
   Orbital Rotation    :       0.001777592040
   Actual Damping      :       0.0000
   Int. Num. El.       :    17.99692198 (UP=    8.99846099 DN=    8.99846099)
   Exchange            :   -12.43284417
   Correlation         :    -0.76389387


  HOMO=   8 E= -3.383 eV LUMO=  2.089 eV gap=   5.472 eV

                         ----------------------------
                         !        ITERATION     9   !
                         ----------------------------
   Total Energy        :     -91.239964628723 Eh
   Energy Change       :      -0.000000996889 Eh
   MAX-DP              :       0.003711922894
   RMS-DP              :       0.000200539851
   Orbital gradient    :       0.000284411298
   Orbital Rotation    :       0.000338094513
   Actual Damping      :       0.0000
   Int. Num. El.       :    17.99693044 (UP=    8.99846522 DN=    8.99846522)
   Exchange            :   -12.43153782
   Correlation         :    -0.76385379


  HOMO=   8 E= -3.383 eV LUMO=  2.089 eV gap=   5.472 eV

                         ----------------------------
                         !        ITERATION    10   !
                         ----------------------------
   Total Energy        :     -91.239965404030 Eh
   Energy Change       :      -0.000000775307 Eh
   MAX-DP              :       0.000487317623
   RMS-DP              :       0.000026127774
   Orbital gradient    :       0.000025441328
   Orbital Rotation    :       0.000046807644
   Actual Damping      :       0.0000
   Int. Num. El.       :    17.99692610 (UP=    8.99846305 DN=    8.99846305)
   Exchange            :   -12.43225261
   Correlation         :    -0.76387749


  HOMO=   8 E= -3.383 eV LUMO=  2.089 eV gap=   5.472 eV

                         ----------------------------
                         !        ITERATION    11   !
                         ----------------------------
   Total Energy        :     -91.239965411183 Eh
   Energy Change       :      -0.000000007154 Eh
   MAX-DP              :       0.000145202196
   RMS-DP              :       0.000007482234
   Orbital gradient    :       0.000015130111
   Orbital Rotation    :       0.000015031044
   Actual Damping      :       0.0000
   Int. Num. El.       :    17.99692599 (UP=    8.99846300 DN=    8.99846300)
   Exchange            :   -12.43220350
   Correlation         :    -0.76387544

                 **** Energy Check signals convergence ****
              ***Rediagonalizing the Fockian in SOSCF/NRSCF***

               *****************************************************
               *                     SUCCESS                       *
               *           SCF CONVERGED AFTER  12 CYCLES          *
               *****************************************************

Setting up the final grid:

General Integration Accuracy     IntAcc      ...  4.670
Radial Grid Type                 RadialGrid  ... Gauss-Chebyshev
Angular Grid (max. acc.)         AngularGrid ... Lebedev-302
Angular grid pruning method      GridPruning ... 3 (G Style)
Weight generation scheme         WeightScheme... Becke
Basis function cutoff            BFCut       ...    1.0000e-11
Integration weight cutoff        WCut        ...    1.0000e-14
Grids for H and He will be reduced by one unit

# of grid points (after initial pruning)     ...  29394 (   0.0 sec)
# of grid points (after weights+screening)   ...  27405 (   0.0 sec)
nearest neighbour list constructed           ...    0.0 sec
Grid point re-assignment to atoms done       ...    0.0 sec
Grid point division into batches done        ...    0.1 sec
Reduced shell lists constructed in    0.1 sec

Total number of grid points                  ...    27405
Total number of batches                      ...      432
Average number of points per batch           ...       63
Average number of grid points per atom       ...     3915
Average number of shells per batch           ...    24.32 (90.08%)
Average number of basis functions per batch  ...    47.61 (89.82%)
Average number of large shells per batch     ...    23.61 (97.06%)
Average number of large basis fcns per batch ...    46.11 (96.85%)
Maximum spatial batch extension              ...  11.17, 11.09, 14.71 au
Average spatial batch extension              ...   0.12,  0.11,  0.13 au

Final grid set up in    0.3 sec
Final integration                            ... done (   0.5 sec)
Change in XC energy                          ...    -0.001753443
Integrated number of electrons               ...    18.000022052
Previous integrated no of electrons          ...    17.996926011

----------------
TOTAL SCF ENERGY
----------------

Total Energy       :          -91.24171886 Eh           -2482.81339 eV

Components:
Nuclear Repulsion  :           79.46974804 Eh            2162.48178 eV
Electronic Energy  :         -170.71146689 Eh           -4645.29518 eV
One Electron Energy:         -273.64698048 Eh           -7446.31290 eV
Two Electron Energy:          102.93551359 Eh            2801.01773 eV

Virial components:
Potential Energy   :         -199.42278857 Eh           -5426.56996 eV
Kinetic Energy     :          108.18106971 Eh            2943.75656 eV
Virial Ratio       :            1.84341668


DFT components:
N(Alpha)           :        9.000011026138 electrons
N(Beta)            :        9.000011026138 electrons
N(Total)           :       18.000022052276 electrons
E(X)               :      -12.433666975061 Eh       
E(C)               :       -0.764175776000 Eh       
E(XC)              :      -13.197842751062 Eh       
DFET-embed. en.    :        0.000000000000 Eh       

---------------
SCF CONVERGENCE
---------------

  Last Energy change         ...   -1.8629e-09  Tolerance :   1.0000e-08
  Last MAX-Density change    ...    2.1122e-05  Tolerance :   1.0000e-07
[...]

                            ***************************************
                            *     ORCA property calculations      *
                            ***************************************

                                    ---------------------
                                    Active property flags
                                    ---------------------
   (+) Dipole Moment


------------------------------------------------------------------------------
                       ORCA ELECTRIC PROPERTIES CALCULATION
------------------------------------------------------------------------------

Dipole Moment Calculation                       ... on
Quadrupole Moment Calculation                   ... off
Polarizability Calculation                      ... off
GBWName                                         ... geo_opt.gbw
Electron density file                           ... geo_opt.scfp
The origin for moment calculation is the CENTER OF MASS  = ( 0.345808,  0.101548  0.174405)

-------------
DIPOLE MOMENT
-------------
                                X             Y             Z
Electronic contribution:      1.10990       0.12040       0.20906
Nuclear contribution   :     -1.18519      -0.38088      -0.65410
                        -----------------------------------------
Total Dipole Moment    :     -0.07530      -0.26048      -0.44504
                        -----------------------------------------
Magnitude (a.u.)       :      0.52113
Magnitude (Debye)      :      1.32461



--------------------
Rotational spectrum 
--------------------
 
Rotational constants in cm-1:     3.420822     0.760006     0.730810 
Rotational constants in MHz : 102553.678186 22784.404452 21909.147507 

 Dipole components along the rotational axes: 
x,y,z [a.u.] :    -0.058639     0.001049    -0.517820 
x,y,z [Debye]:    -0.149048     0.002666    -1.316194 

 

----------------------------------------------------------------------------
                           ORCA NUMERICAL FREQUENCIES
                              (16-process run)
----------------------------------------------------------------------------

Number of atoms                ... 7
Central differences            ... used
Number of displacements        ... 42
Numerical increment            ... 5.000e-03 bohr
IR-spectrum generation         ... on
Raman-spectrum generation      ... off
Surface Crossing Hessian       ... off

The output will be reduced. Please look at the following files:
SCF program output             ... >geo_opt.lastscf
Integral program output        ... >geo_opt.lastint
Gradient program output        ... >geo_opt.lastgrad
Dipole moment program output   ... >geo_opt.lastmom
AutoCI program output          ... >geo_opt.lastautoci


         <<< Energy and Gradient at the input geometry >>>

        <<< Energy and Gradient at displaced geometries >>>
             <<<Displacing   5/coordinate 3 (+)>>>
             <<<Displacing   3/coordinate 3 (+)>>>
             <<<Displacing   3/coordinate 2 (+)>>>
             <<<Displacing   1/coordinate 2 (+)>>>
             <<<Displacing   3/coordinate 1 (+)>>>
             <<<Displacing   4/coordinate 3 (+)>>>
             <<<Displacing   4/coordinate 1 (+)>>>
             <<<Displacing   6/coordinate 1 (+)>>>
             <<<Displacing   5/coordinate 1 (+)>>>
             <<<Displacing   2/coordinate 3 (+)>>>
             <<<Displacing   1/coordinate 3 (+)>>>
             <<<Displacing   5/coordinate 2 (+)>>>
             <<<Displacing   4/coordinate 2 (+)>>>
             <<<Displacing   2/coordinate 2 (+)>>>
             <<<Displacing   1/coordinate 1 (+)>>>
             <<<Displacing   2/coordinate 1 (+)>>>
             <<<Displacing   3/coordinate 3 (-)>>>
             <<<Displacing   2/coordinate 1 (-)>>>
             <<<Displacing   4/coordinate 2 (-)>>>
             <<<Displacing   4/coordinate 1 (-)>>>
             <<<Displacing   2/coordinate 3 (-)>>>
             <<<Displacing   3/coordinate 2 (-)>>>
             <<<Displacing   5/coordinate 1 (-)>>>
             <<<Displacing   4/coordinate 3 (-)>>>
             <<<Displacing   5/coordinate 3 (-)>>>
             <<<Displacing   6/coordinate 1 (-)>>>
             <<<Displacing   1/coordinate 2 (-)>>>
             <<<Displacing   3/coordinate 1 (-)>>>
             <<<Displacing   2/coordinate 2 (-)>>>
             <<<Displacing   5/coordinate 2 (-)>>>
             <<<Displacing   1/coordinate 3 (-)>>>
             <<<Displacing   1/coordinate 1 (-)>>>
             <<<Displacing   6/coordinate 2 (+)>>>
             <<<Displacing   6/coordinate 3 (+)>>>
             <<<Displacing   7/coordinate 1 (+)>>>
             <<<Displacing   7/coordinate 2 (+)>>>
             <<<Displacing   7/coordinate 3 (+)>>>
             <<<Displacing   6/coordinate 2 (-)>>>
             <<<Displacing   6/coordinate 3 (-)>>>
             <<<Displacing   7/coordinate 3 (-)>>>
             <<<Displacing   7/coordinate 1 (-)>>>
             <<<Displacing   7/coordinate 2 (-)>>>

-----------------------
VIBRATIONAL FREQUENCIES
-----------------------

Scaling factor for frequencies =  1.000000000 (already applied!)

   0:         0.00 cm**-1
   1:         0.00 cm**-1
   2:         0.00 cm**-1
   3:         0.00 cm**-1
   4:         0.00 cm**-1
   5:         0.00 cm**-1
   6:       329.88 cm**-1
   7:       835.10 cm**-1
   8:       976.46 cm**-1
   9:      1084.73 cm**-1
  10:      1165.94 cm**-1
  11:      1336.57 cm**-1
  12:      1444.79 cm**-1
  13:      1475.16 cm**-1
  14:      1491.87 cm**-1
  15:      1643.08 cm**-1
  16:      2938.15 cm**-1
  17:      3053.54 cm**-1
  18:      3097.83 cm**-1
  19:      3481.08 cm**-1
  20:      3551.83 cm**-1


------------
NORMAL MODES
------------

These modes are the cartesian displacements weighted by the diagonal matrix
M(i,i)=1/sqrt(m[i]) where m[i] is the mass of the displaced atom
Thus, these vectors are normalized but *not* orthogonal

                  0          1          2          3          4          5    
      0       0.000000   0.000000   0.000000   0.000000   0.000000   0.000000
      1       0.000000   0.000000   0.000000   0.000000   0.000000   0.000000
      2       0.000000   0.000000   0.000000   0.000000   0.000000   0.000000
      3       0.000000   0.000000   0.000000   0.000000   0.000000   0.000000
      4       0.000000   0.000000   0.000000   0.000000   0.000000   0.000000
      5       0.000000   0.000000   0.000000   0.000000   0.000000   0.000000
      6       0.000000   0.000000   0.000000   0.000000   0.000000   0.000000
      7       0.000000   0.000000   0.000000   0.000000   0.000000   0.000000
      8       0.000000   0.000000   0.000000   0.000000   0.000000   0.000000
      9       0.000000   0.000000   0.000000   0.000000   0.000000   0.000000
     10       0.000000   0.000000   0.000000   0.000000   0.000000   0.000000
     11       0.000000   0.000000   0.000000   0.000000   0.000000   0.000000
     12       0.000000   0.000000   0.000000   0.000000   0.000000   0.000000
     13       0.000000   0.000000   0.000000   0.000000   0.000000   0.000000
     14       0.000000   0.000000   0.000000   0.000000   0.000000   0.000000
     15       0.000000   0.000000   0.000000   0.000000   0.000000   0.000000
     16       0.000000   0.000000   0.000000   0.000000   0.000000   0.000000
     17       0.000000   0.000000   0.000000   0.000000   0.000000   0.000000
     18       0.000000   0.000000   0.000000   0.000000   0.000000   0.000000
     19       0.000000   0.000000   0.000000   0.000000   0.000000   0.000000
     20       0.000000   0.000000   0.000000   0.000000   0.000000   0.000000
                  6          7          8          9         10         11    
      0      -0.000426  -0.080512   0.001439   0.299079  -0.046102  -0.000075
      1      -0.036074  -0.042471   0.004224   0.013458   0.049385   0.087209
      2       0.020539  -0.074148  -0.000952   0.022580   0.085558  -0.050133
      3       0.000034   0.027437  -0.000514  -0.332457   0.056389  -0.000890
      4      -0.003854  -0.005406   0.055990  -0.032823  -0.071635  -0.121161
      5       0.001754  -0.011004  -0.032624  -0.055863  -0.124264   0.070109
      6       0.069553   0.128402  -0.458897  -0.114817   0.424448   0.325383
      7       0.026034   0.034170  -0.123255   0.042058   0.057664   0.005530
      8      -0.363511   0.104437   0.092872   0.139461   0.269172  -0.147102
      9      -0.067107   0.140248   0.456698  -0.122505   0.420588  -0.313283
     10       0.329824   0.064345  -0.141248   0.098868   0.203058   0.122301
     11       0.162120   0.080530   0.059177   0.103731   0.182633   0.071233
     12      -0.002493  -0.256216  -0.000505  -0.674254  -0.568256   0.003619
     13      -0.266698   0.050050  -0.250256   0.056997   0.069681   0.285257
     14       0.154305   0.090653   0.143719   0.097010   0.119964  -0.165978
     15       0.013177   0.381600  -0.445047   0.359269  -0.151450  -0.542382
     16      -0.019786   0.155746  -0.168061   0.020285  -0.006331  -0.126478
     17      -0.555960   0.501688  -0.056458  -0.002365  -0.181921  -0.009183
     18      -0.007610   0.397815   0.433887   0.357807  -0.156620   0.538302
     19       0.477820   0.350269  -0.043030  -0.014099  -0.156737  -0.054728
     20       0.296752   0.384155   0.162661   0.014042  -0.098058   0.112282
                 12         13         14         15         16         17    
      0       0.007488  -0.004978   0.000572  -0.071969  -0.002333  -0.000798
      1      -0.001028  -0.009729  -0.020775   0.013140  -0.000100   0.000667
      2      -0.005004  -0.011086   0.013736   0.022143  -0.000145   0.001278
      3       0.099663  -0.072369   0.010039   0.009993  -0.038565   0.031084
      4      -0.019107  -0.021972  -0.029863   0.011043  -0.028652  -0.034692
      5      -0.032651  -0.030716   0.020453   0.019124  -0.048718  -0.063891
      6      -0.499989   0.091995  -0.392942  -0.054003   0.059086  -0.227092
      7      -0.236492   0.032244  -0.151814  -0.012810  -0.178135   0.631521
      8       0.388779   0.467968  -0.376626  -0.013878  -0.021210   0.000330
      9      -0.527699   0.174533   0.338826  -0.056660   0.062007  -0.236020
     10       0.444716   0.435519   0.186387  -0.007155   0.074853  -0.329211
     11      -0.024280   0.326341   0.258573  -0.020225  -0.170937   0.568024
     12      -0.205795   0.588502  -0.068521   0.029964   0.371580   0.096081
     13       0.036195  -0.080595   0.590250   0.007509   0.441406   0.108309
     14       0.093562  -0.285911  -0.301693   0.017379   0.766750   0.187821
     15      -0.035744   0.049201   0.091712   0.478936  -0.000408   0.003830
     16      -0.014594   0.011668   0.013727   0.207018  -0.004179  -0.012784
     17       0.007523   0.003221  -0.001482  -0.467600   0.007780  -0.000524
     18      -0.022369   0.027263  -0.096652   0.482755  -0.000327   0.003893
     19       0.012136  -0.001839   0.005973  -0.508729   0.008864   0.006268
     20      -0.006996   0.008438  -0.013364  -0.051239   0.000147  -0.012108
                  18         19         20    
      0       0.000024   0.037793   0.000109
      1       0.002065  -0.021674  -0.069663
      2      -0.001192  -0.037451   0.040449
      3       0.000862  -0.001642   0.000004
      4      -0.081476  -0.001722  -0.002142
      5       0.045675  -0.003034   0.001259
      6      -0.244613  -0.001501  -0.004832
      7       0.674608   0.011872   0.014300
      8       0.021308  -0.000256  -0.000603
      9       0.234364  -0.001579   0.004822
     10       0.307155  -0.006121   0.007815
     11      -0.570652   0.010452  -0.012161
     12      -0.000227  -0.001061  -0.000069
     13      -0.018592   0.004779   0.000846
     14       0.009643   0.008598  -0.000743
     15       0.000633  -0.250851  -0.256160
     16      -0.016101   0.658428   0.657177
     17      -0.003307  -0.024240   0.012882
     18      -0.000770  -0.250610   0.254679
     19      -0.004927  -0.347263   0.313410
     20       0.015321   0.562010  -0.576446


-----------
IR SPECTRUM  
-----------

 Mode    freq (cm**-1)   T**2         TX         TY         TZ
-------------------------------------------------------------------
   6:       329.88   40.561207  (  0.047613   5.538213  -3.144381)
   7:       835.10  160.746877  (  9.351971   4.165130   7.479252)
   8:       976.46    0.025710  ( -0.120028  -0.106300   0.001837)
   9:      1084.73   15.094415  ( -3.826200  -0.348293  -0.577319)
  10:      1165.94    5.432270  (  0.504608  -1.133396  -1.973082)
  11:      1336.57    0.299669  ( -0.000351   0.483861  -0.256022)
  12:      1444.79    3.044876  (  1.396265   0.485833   0.926978)
  13:      1475.16   11.623457  ( -3.196500   0.749031   0.919129)
  14:      1491.87    2.586083  (  0.399706   1.295241  -0.865256)
  15:      1643.08   15.797243  (  2.228872  -1.526584  -2.915290)
  16:      2938.15  106.044149  ( -8.026256  -3.309491  -5.538106)
  17:      3053.54   40.455233  (  2.876455  -2.784980  -4.942178)
  18:      3097.83   30.991493  (  0.131266  -4.907212   2.625555)
  19:      3481.08    0.793543  (  0.808699   0.255656   0.272377)
  20:      3551.83    0.346182  (  0.038198   0.518479  -0.275504)

The first frequency considered to be a vibration is 6
The total number of vibrations considered is 15


--------------------------
THERMOCHEMISTRY AT 298.15K
--------------------------

Temperature         ... 298.15 K
Pressure            ... 1.00 atm
Total Mass          ... 31.06 AMU

Throughout the following assumptions are being made:
  (1) The electronic state is orbitally nondegenerate
  (2) There are no thermally accessible electronically excited states
  (3) Hindered rotations indicated by low frequency modes are not
      treated as such but are treated as vibrations and this may
      cause some error
  (4) All equations used are the standard statistical mechanics
      equations for an ideal gas
  (5) All vibrations are strictly harmonic

freq.     329.88  E(vib)   ...       0.24 
freq.     835.10  E(vib)   ...       0.04 
freq.     976.46  E(vib)   ...       0.03 
freq.    1084.73  E(vib)   ...       0.02 
freq.    1165.94  E(vib)   ...       0.01 
freq.    1336.57  E(vib)   ...       0.01 
freq.    1444.79  E(vib)   ...       0.00 
freq.    1475.16  E(vib)   ...       0.00 
freq.    1491.87  E(vib)   ...       0.00 
freq.    1643.08  E(vib)   ...       0.00 
freq.    2938.15  E(vib)   ...       0.00 
freq.    3053.54  E(vib)   ...       0.00 
freq.    3097.83  E(vib)   ...       0.00 
freq.    3481.08  E(vib)   ...       0.00 
freq.    3551.83  E(vib)   ...       0.00 

------------
INNER ENERGY
------------

The inner energy is: U= E(el) + E(ZPE) + E(vib) + E(rot) + E(trans)
    E(el)   - is the total energy from the electronic structure calculation
              = E(kin-el) + E(nuc-el) + E(el-el) + E(nuc-nuc)
    E(ZPE)  - the the zero temperature vibrational energy from the frequency calculation
    E(vib)  - the the finite temperature correction to E(ZPE) due to population
              of excited vibrational states
    E(rot)  - is the rotational thermal energy
    E(trans)- is the translational thermal energy

Summary of contributions to the inner energy U:
Electronic energy                ...    -95.71917156 Eh
Zero point energy                ...      0.06357457 Eh      39.89 kcal/mol
Thermal vibrational correction   ...      0.00056810 Eh       0.36 kcal/mol
Thermal rotational correction    ...      0.00141627 Eh       0.89 kcal/mol
Thermal translational correction ...      0.00141627 Eh       0.89 kcal/mol
-----------------------------------------------------------------------
Total thermal energy                    -95.65219634 Eh


Summary of corrections to the electronic energy:
(perhaps to be used in another calculation)
Total thermal correction                  0.00340065 Eh       2.13 kcal/mol
Non-thermal (ZPE) correction              0.06357457 Eh      39.89 kcal/mol
-----------------------------------------------------------------------
Total correction                          0.06697521 Eh      42.03 kcal/mol


--------
ENTHALPY
--------

The enthalpy is H = U + kB*T
                kB is Boltzmann's constant
Total free energy                 ...    -95.65219634 Eh 
Thermal Enthalpy correction       ...      0.00094421 Eh       0.59 kcal/mol
-----------------------------------------------------------------------
Total Enthalpy                    ...    -95.65125214 Eh


Note: Only C1 symmetry has been detected, increase convergence thresholds 
      if your molecule has a higher symmetry. Symmetry factor of 1.0 is   
      used for the rotational entropy correction. 
 

Note: Rotational entropy computed according to Herzberg 
Infrared and Raman Spectra, Chapter V,1, Van Nostrand Reinhold, 1945 
Point Group:  C1, Symmetry Number:   1  
Rotational constants in cm-1:     3.420822     0.760006     0.730810 

Vibrational entropy computed according to the QRRHO of S. Grimme
Chem.Eur.J. 2012 18 9955


-------
ENTROPY
-------

The entropy contributions are T*S = T*(S(el)+S(vib)+S(rot)+S(trans))
     S(el)   - electronic entropy
     S(vib)  - vibrational entropy
     S(rot)  - rotational entropy
     S(trans)- translational entropy
The entropies will be listed as mutliplied by the temperature to get
units of energy

Electronic entropy                ...      0.00000000 Eh      0.00 kcal/mol
Vibrational entropy               ...      0.00082281 Eh      0.52 kcal/mol
Rotational entropy                ...      0.00920780 Eh      5.78 kcal/mol
Translational entropy             ...      0.01721518 Eh     10.80 kcal/mol
-----------------------------------------------------------------------
Final entropy term                ...      0.02724579 Eh     17.10 kcal/mol

In case the symmetry of your molecule has not been determined correctly
or in case you have a reason to use a different symmetry number we print 
out the resulting rotational entropy values for sn=1,12 :
 --------------------------------------------------------
|  sn= 1 | S(rot)=       0.00920780 Eh      5.78 kcal/mol|
|  sn= 2 | S(rot)=       0.00855334 Eh      5.37 kcal/mol|
|  sn= 3 | S(rot)=       0.00817051 Eh      5.13 kcal/mol|
|  sn= 4 | S(rot)=       0.00789889 Eh      4.96 kcal/mol|
|  sn= 5 | S(rot)=       0.00768820 Eh      4.82 kcal/mol|
|  sn= 6 | S(rot)=       0.00751605 Eh      4.72 kcal/mol|
|  sn= 7 | S(rot)=       0.00737051 Eh      4.63 kcal/mol|
|  sn= 8 | S(rot)=       0.00724443 Eh      4.55 kcal/mol|
|  sn= 9 | S(rot)=       0.00713322 Eh      4.48 kcal/mol|
|  sn=10 | S(rot)=       0.00703374 Eh      4.41 kcal/mol|
|  sn=11 | S(rot)=       0.00694375 Eh      4.36 kcal/mol|
|  sn=12 | S(rot)=       0.00686160 Eh      4.31 kcal/mol|
 --------------------------------------------------------


-------------------
GIBBS FREE ENERGY
-------------------

The Gibbs free energy is G = H - T*S

Total enthalpy                    ...    -95.65125214 Eh 
Total entropy correction          ...     -0.02724579 Eh    -17.10 kcal/mol
-----------------------------------------------------------------------
Final Gibbs free energy         ...    -95.67849792 Eh

For completeness - the Gibbs free energy minus the electronic energy
G-E(el)                           ...      0.04067364 Eh     25.52 kcal/mol


Total Time for Numerical Frequencies  :        44.038 sec

Timings for individual modules:

Sum of individual times         ...     1023.981 sec (=  17.066 min)
GTO integral calculation        ...      143.827 sec (=   2.397 min)  14.0 %
SCF iterations                  ...      735.164 sec (=  12.253 min)  71.8 %
SCF Gradient evaluation         ...      136.504 sec (=   2.275 min)  13.3 %
Geometry relaxation             ...        8.487 sec (=   0.141 min)   0.8 %
                             ****ORCA TERMINATED NORMALLY****
TOTAL RUN TIME: 0 days 0 hours 17 minutes 56 seconds 693 msec
